# vtk DataFile Version 3.0
divides
ASCII
DATASET UNSTRUCTURED_GRID
POINTS       9001 float
        1766.413        1385.524         369.187
        5685.115        1072.601         367.848
        4503.730        1271.991         358.724
        7844.930        1250.984         413.679
        8180.932        1237.719         352.315
       11194.489        1416.264         370.210
       10796.597         510.264         249.713
       13876.019        1153.284         385.533
       11614.122        1460.215         410.802
       14484.271        1157.732         341.647
       17211.262        1899.447         436.841
       18370.095         990.741         352.736
       20708.186        1600.152         434.108
       21395.283         631.583         299.773
       20890.036        1635.706         391.496
       25028.727         907.572         365.868
       23781.097        1460.858         376.482
       26308.111         906.361         355.745
       27446.317        1285.322         359.896
       29944.740        1459.477         410.343
       30983.472         702.339         307.269
       34349.723        1431.799         391.488
       33468.399        1149.378         342.495
       33113.691         468.444         259.221
       36841.485        1222.618         426.237
       34685.910        1430.108         382.527
       38838.764         508.936         257.965
       38268.761        1186.167         347.376
       37266.394        1233.296         397.364
       40750.915         946.290         357.102
       43330.966        1118.512         339.338
       41867.166        1819.987         442.368
       45889.927         896.739         326.511
       47659.683        1195.124         404.080
       50451.904         808.190         346.406
       48520.764        1184.419         393.007
       49902.646        1477.979         383.963
       51861.152         806.228         354.945
       52905.543        1052.147         331.110
       55457.196        1143.559         389.386
       55864.596        1128.806         342.264
       59088.136         939.118         314.992
       61920.242        1214.401         401.465
       60497.035        1394.877         378.861
       63522.334        1342.846         411.118
       64347.762         515.427         238.699
       63824.401        1349.904         372.875
       67270.650        1236.430         358.878
       66785.008         540.278         261.536
       67724.881        1270.546         405.024
       70383.517        1729.150         410.986
       69908.334         470.022         261.124
       72135.124         901.692         310.297
       74669.920        1180.736         398.429
       72700.684         942.185         366.721
       75644.398         490.427         254.074
       75106.805        1157.751         348.662
       76244.975        1566.771         405.604
       78347.992        1405.978         441.944
       78642.775        1411.088         382.540
       79472.484         696.931         610.468
         875.728        1713.585         503.339
        1611.009        3133.487         544.705
         739.019        2646.357         548.342
        3366.005        1673.377         566.344
        4787.191        2403.053         546.095
        3433.483        2990.406         625.664
        4911.186        1607.430         427.991
        7709.035        2822.487         567.074
        9082.543        1908.484         518.596
        7460.858        2176.476         526.727
        7658.392        1629.547         437.994
        9133.439        2981.211         593.613
        8846.337        1394.482         464.299
       12409.735        1936.061         494.889
       12583.611        2330.528         516.230
       10605.422        2153.835         388.945
       16996.385        1914.838         515.044
       17243.722        1918.041         435.004
       16948.431        2016.966         539.794
       17300.763        2279.514         568.654
       20630.710        1795.801         430.296
       20813.479        2382.243         552.024
       21383.530        2260.519         582.981
       21222.426        1711.405         456.153
       20556.319        2091.022         499.135
       24267.065        2099.954         484.615
       23877.606        3169.509         598.830
       22744.689        2415.112         578.189
       23218.815        1666.245         450.250
       24217.743        1723.785         436.185
       27304.240        2572.048         547.050
       29270.829        1610.355         618.261
       29107.181        2320.349         617.560
       27033.705        1578.935         417.664
       30400.089        1708.794         468.673
       30484.178        1251.851         547.551
       30195.258        2146.967         545.895
       32083.048        1996.906         401.885
       36173.433        1558.950         605.829
       37340.521        1507.628         401.942
       37021.580        1918.545         498.391
       39000.204        1756.598         384.284
       38076.176        4828.912         565.545
       39201.780        2668.002         450.560
       41684.694        2018.499         511.922
       41920.454        2108.613         527.066
       41997.851        1972.167         500.318
       41883.073        1856.105         441.498
       41798.498        1850.545         441.743
       44579.518        1641.830         404.025
       48581.692        2848.647         627.881
       50289.317        2130.570         412.009
       49307.970        1758.559         503.054
       54593.013        1534.707         529.233
       52284.593        2064.328         439.169
       52323.712        1505.391         385.923
       56820.396        2851.259         569.706
       56725.133        1563.220         489.842
       54158.196        2425.083         586.643
       60287.091        1527.398         404.407
       58031.699        3399.863         470.839
       61424.886        2458.990         680.493
       60269.924        1808.272         471.174
       60982.080        1550.718         529.682
       62618.745        2708.727         627.666
       63215.783        1656.165         472.502
       63890.653        2037.085         405.842
       68140.971        1936.817         450.375
       68063.404        1452.324         445.384
       70022.504        2323.265         544.805
       70744.084        1827.140         481.177
       70841.772        2160.253         536.763
       70177.862        1964.479         417.627
       73969.362        1554.994         502.414
       73827.088        3716.055         613.739
       73714.227        2219.559         543.902
       76974.774        1674.560         649.161
       79210.939        1674.057         459.777
       78679.954        2404.086         523.081
         663.248        3787.262         506.461
        3760.652        3679.588         776.926
        3513.735        3227.707         611.291
        3098.833        3331.682         599.790
        5688.147        4257.536         560.635
        5466.636        3287.099         354.371
        9044.741        5460.094         717.529
       10689.879        4070.229         670.572
       10018.343        3316.304         550.040
        8854.395        3727.577         590.114
       10617.329        2588.303         414.920
       12112.776        2840.238         540.467
       16725.238        3321.349         521.727
       11884.763        4190.379         567.246
       17687.339        4056.979         442.846
       16187.984        3832.921         582.717
       17896.390        3091.633         433.820
       22416.513        4284.789         642.669
       21877.131        3546.183         553.434
       23518.385        3323.123         649.601
       21652.279        3339.645         517.873
       26873.598        3058.331         460.942
       28528.025        4298.794         711.543
       28351.336        3027.564         662.936
       27209.917        3658.115         548.920
       30813.368        3297.685         496.630
       30116.743        4052.411         599.210
       28784.313        4367.372         671.014
       34024.540        2520.175         358.395
       32052.623        2300.545         415.370
       35571.959        2686.344         514.144
       35417.132        2294.173         540.724
       41355.058        4387.384         457.253
       41481.547        3759.195         442.096
       38190.321        4966.484         537.291
       43082.425        4379.279         448.039
       45204.052        2944.806         478.129
       44548.449        2303.621         442.823
       46454.660        4462.555         540.731
       47840.646        3113.140         539.812
       44936.863        4890.305         592.713
       47189.229        2218.763         491.457
       47916.388        3263.365         516.469
       48433.529        3146.249         531.444
       48160.485        3784.998         658.216
       48476.411        4268.770         544.419
       52629.532        2974.582         442.850
       55483.169        3349.286         675.973
       52603.121        3551.077         533.839
       56252.098        3514.868         576.536
       54897.542        4204.544         811.054
       56118.970        3950.764         679.785
       61733.259        3164.676         522.197
       62218.565        3465.590         496.609
       62449.475        3114.361         497.718
       61671.566        3454.338         580.405
       65566.995        4192.961         516.315
       65921.291        3142.958         506.704
       67051.424        3694.022         721.988
       67398.587        3441.004         562.545
       67441.217        3450.510         546.756
       67481.683        3944.910         736.284
[...]
POINT_DATA       9001
SCALARS height float 1
LOOKUP_TABLE default
   369.2
   367.8
   358.7
   413.7
   352.3
   370.2
   249.7
   385.5
   410.8
   341.6
   436.8
   352.7
   434.1
   299.8
   391.5
   365.9
   376.5
   355.7
   359.9
   410.3
   307.3
   391.5
   342.5
   259.2
   426.2
   382.5
   258.0
   347.4
   397.4
   357.1
   339.3
   442.4
   326.5
   404.1
   346.4
   393.0
   384.0
   354.9
   331.1
   389.4
   342.3
   315.0
   401.5
   378.9
   411.1
   238.7
   372.9
   358.9
   261.5
   405.0
   411.0
   261.1
   310.3
   398.4
   366.7
   254.1
   348.7
   405.6
   441.9
   382.5
   610.5
   503.3
   544.7
   548.3
   566.3
   546.1
   625.7
   428.0
   567.1
   518.6
   526.7
   438.0
   593.6
   464.3
   494.9
   516.2
   388.9
   515.0
   435.0
   539.8
   568.7
   430.3
   552.0
   583.0
   456.2
   499.1
   484.6
   598.8
   578.2
   450.3
   436.2
   547.0
   618.3
   617.6
   417.7
   468.7
   547.6
   545.9
   401.9
   605.8
   401.9
   498.4
   384.3
   565.5
   450.6
   511.9
   527.1
   500.3
   441.5
   441.7
   404.0
   627.9
   412.0
   503.1
   529.2
   439.2
   385.9
   569.7
   489.8
   586.6
   404.4
   470.8
   680.5
   471.2
   529.7
   627.7
   472.5
   405.8
   450.4
   445.4
   544.8
   481.2
   536.8
   417.6
   502.4
   613.7
   543.9
   649.2
   459.8
   523.1
   506.5
   776.9
   611.3
   599.8
   560.6
   354.4
   717.5
   670.6
   550.0
   590.1
   414.9
   540.5
   521.7
   567.2
   442.8
   582.7
   433.8
   642.7
   553.4
   649.6
   517.9
   460.9
   711.5
   662.9
   548.9
   496.6
   599.2
   671.0
   358.4
   415.4
   514.1
   540.7
   457.3
   442.1
   537.3
   448.0
   478.1
   442.8
   540.7
   539.8
   592.7
   491.5
   516.5
   531.4
   658.2
   544.4
   442.8
   676.0
   533.8
   576.5
   811.1
   679.8
   522.2
   496.6
   497.7
   580.4
   516.3
   506.7
   722.0
   562.5
   546.8
   736.3
   612.5
   546.5
   586.9
   548.8
   733.0
   674.2
   629.4
   652.9
   682.7
   579.1
   422.7
   436.8
   627.6
   432.5
   220.4
   571.9
   469.1
   643.7
   583.9
   745.4
   779.1
   660.9
   584.6
   580.8
   762.8
   690.3
   511.4
   416.8
   544.4
   467.0
   520.5
   567.0
   684.4
   714.1
   643.4
   623.1
   548.9
   663.2
   638.0
   631.1
   880.4
   490.7
   474.1
   480.4
   718.0
   590.7
   600.1
   605.9
   636.0
   651.6
   609.4
   578.4
   753.3
   718.5
   537.8
   674.1
   557.1
   451.0
   464.8
   673.6
   560.5
   771.2
   582.5
   565.5
   655.7
   591.1
   703.1
   488.4
   576.9
   859.5
   701.6
   741.3
   742.7
   581.9
   673.0
   791.5
   450.4
   526.5
   517.8
   532.5
   685.7
   646.8
   731.9
   657.2
   622.0
   562.7
   721.1
   802.0
   838.0
   864.6
   490.3
   529.7
   450.7
   624.8
   812.8
   820.5
   644.2
   693.4
   615.1
   636.2
   728.2
   547.1
   639.9
   674.4
   590.8
   559.1
   580.9
   421.6
   498.9
   546.8
   681.2
   690.5
   642.2
   778.2
   602.6
   591.5
   639.9
   844.0
   741.0
   699.4
   754.9
   690.8
   791.3
   846.7
   329.5
   433.6
   640.1
   560.8
   693.1
   532.6
   714.6
   669.7
   710.5
   571.6
   629.7
   720.7
   816.2
   596.9
   572.6
   614.0
   870.4
   838.7
   706.1
   715.3
   668.7
   675.1
   459.5
   538.5
   551.0
   969.4
   821.3
   742.4
   477.3
   445.5
   535.0
   530.8
   617.5
   625.6
   648.9
   788.4
   711.2
   886.5
   718.1
   688.9
   875.6
   664.6
   839.9
   759.1
   843.6
   801.0
   612.2
   831.1
   757.1
   839.1
   712.3
   762.2
   829.1
   792.6
   428.4
   588.4
   564.0
   436.8
   479.8
   436.4
   568.7
   544.5
   804.6
   641.7
   834.3
   862.0
   819.7
   759.7
   666.8
   816.5
   769.8
   840.3
   649.2
   875.8
   885.5
   747.3
   723.1
   605.3
   618.4
   790.2
   780.2
   641.4
   631.0
   841.6
   561.0
   670.2
   782.3
   544.8
   785.9
   843.5
   801.1
   875.1
   856.0
   566.5
   704.0
   436.1
   597.8
   718.1
   540.3
   774.4
   651.7
   636.8
   588.8
   641.4
   610.9
   865.9
   871.8
   537.1
   591.8
   842.3
   782.0
   938.4
   941.0
   672.1
   778.8
   578.2
   717.0
   627.3
   835.3
   869.8
   714.8
   610.5
   770.7
   542.5
   528.9
   823.0
   737.1
   838.9
   590.1
   632.6
   636.0
  1084.8
   779.7
  1001.2
   984.9
   988.8
  1075.1
   904.1
   968.3
  1061.5
  1050.9
   930.3
   863.0
   889.8
   697.3
   816.3
   741.3
   820.7
   602.6
   509.9
   562.7
   527.0
   439.5
   390.9
   386.0
   495.5
   492.1
   432.6
   460.6
   606.7
   552.2
   857.3
   721.6
   911.2
   797.8
   775.6
  1028.9
   771.6
   916.0
   782.3
   695.8
   866.0
   686.1
   592.6
   650.9
   970.2
  1058.9
   884.7
  1033.7
  1008.8
   734.0
   831.1
   861.5
  1137.9
  1037.2
   917.0
   757.0
   831.1
   669.8
   699.1
   924.9
   919.1
   699.6
   736.5
   925.4
   973.4
   664.5
   787.7
   630.5
   926.4
  1116.3
  1180.9
  1028.9
   568.4
   978.7
   813.9
   930.3
   797.8
   951.3
  1046.7
  1152.9
   633.3
   443.9
   896.1
   826.6
  1009.3
   993.1
   732.5
   744.9
   905.0
   803.6
  1050.9
  1051.9
  1041.7
   995.4
  1129.6
  1188.2
   974.9
   913.3
   917.7
  1156.8
   728.8
   699.6
   764.4
   677.2
   548.7
   551.2
   587.3
   564.8
   525.6
   740.8
   723.4
   593.8
   647.5
   783.5
   753.5
   734.8
   759.3
   759.5
  1100.0
  1166.8
   899.5
   912.6
   920.7
  1070.6
   817.6
  1104.0
  1098.2
  1132.2
   926.3
   805.0
   683.0
  1009.9
   845.8
  1002.2
  1058.5
   882.5
   714.7
   637.2
   555.1
  1002.3
   973.2
  1022.0
  1011.4
  1030.6
   780.2
   938.2
   777.8
   799.9
   703.4
  1001.8
   961.5
   688.7
   743.7
   990.1
   846.6
   661.4
  1032.2
  1030.2
  1098.5
   907.5
  1266.3
  1030.9
  1258.8
  1108.2
   594.4
   777.3
   999.9
  1048.1
  1265.8
  1162.2
   880.5
   952.3
   881.8
   609.6
   720.5
   546.6
   768.4
   862.2
   960.2
   714.1
   977.3
   971.4
  1165.3
  1331.3
  1056.0
  1121.1
   762.2
   909.8
   670.2
   861.9
   870.4
   780.2
   630.0
   790.1
   693.5
   616.7
   496.9
   434.2
   541.6
   276.6
   537.6
   674.5
   805.4
   914.1
   724.3
   792.6
   783.0
   912.7
   767.3
   934.0
   945.3
   903.1
   921.2
  1118.1
   845.3
  1135.4
  1312.1
  1144.2
  1160.9
  1144.3
  1135.9
  1107.5
   996.9
   912.6
   862.0
  1077.7
  1238.7
  1185.4
  1322.5
  1331.3
   909.7
   989.4
   665.3
   680.8
   620.3
   676.5
   654.4
   800.2
   933.1
  1012.5
  1026.8
   873.9
  1070.7
  1084.5
  1047.2
  1011.5
  1208.1
   929.8
  1189.0
   932.8
  1093.2
   829.9
  1008.8
   953.7
   887.5
  1016.5
  1241.7
  1155.5
   681.4
   610.3
  1012.1
   805.3
  1000.9
  1260.9
  1242.6
  1237.3
  1087.1
  1147.5
  1327.8
   782.8
   677.8
   490.0
   545.1
   536.0
   502.6
   397.9
   355.7
   355.5
   479.1
   475.5
   567.8
   504.4
   421.3
   396.7
   630.4
   494.8
   464.5
   687.3
   774.8
   528.0
   588.8
   641.3
   867.5
   799.2
   675.4
  1076.4
  1191.8
  1204.9
  1372.7
  1492.6
  1469.1
  1416.2
  1291.7
  1143.8
  1278.8
  1510.4
  1469.0
  1555.3
  1550.7
   829.3
  1004.6
   968.6
  1125.8
   835.0
  1125.3
   984.2
  1016.9
   821.6
  1387.5
  1326.1
  1122.1
  1332.2
  1376.2
  1370.8
  1415.6
  1389.7
  1420.2
  1394.4
  1216.3
  1418.8
  1420.7
  1220.3
  1449.0
  1517.9
  1496.0
  1374.2
  1271.8
  1511.6
  1171.6
  1386.5
  1262.9
  1243.6
  1237.7
  1097.5
  1031.7
  1174.2
   976.5
   925.9
   946.6
   758.6
  1361.9
  1422.7
  1379.1
  1203.4
  1152.7
  1198.5
  1345.6
  1123.7
  1136.6
  1124.3
  1089.9
   932.4
   642.7
   921.1
   921.1
   831.7
   638.6
   701.3
   673.4
   648.7
   726.9
   567.0
   655.9
   620.5
   449.6
   412.0
   442.1
   472.1
   545.5
   740.6
  1300.1
  1427.3
  1390.1
  1500.1
  1490.2
  1494.0
  1592.8
  1598.4
  1599.5
  1597.5
  1333.8
  1747.8
  1501.0
  1426.1
  1485.9
  1495.2
  1513.3
  1414.1
  1160.6
  1295.7
  1427.3
  1269.0
  1275.2
  1292.3
  1096.9
  1002.0
  1128.0
  1034.5
  1312.2
  1651.7
  1566.2
  1633.8
  1646.6
  1566.1
  1649.1
  1643.8
  1512.2
  1655.7
  1654.2
  1688.6
  1481.2
  1668.1
  1515.9
  1505.9
  1513.3
  1427.5
  1198.4
  1267.0
  1429.4
  1201.4
  1155.5
  1272.3
  1284.9
   936.2
   985.3
  1004.3
  1178.1
  1334.9
  1406.1
  1493.3
   949.2
  1200.0
  1176.4
  1180.8
  1033.0
  1051.2
   903.6
  1050.0
   844.3
   746.0
   776.4
   732.7
   559.2
   637.5
   503.2
   435.7
   652.4
   538.1
   462.1
   370.0
   409.9
   431.3
   583.7
   668.0
   634.9
   552.9
   800.3
   569.3
   744.7
   604.9
   641.9
   541.0
   927.2
   729.2
   793.5
   860.6
   741.9
   986.0
   963.2
   849.2
  1020.0
  1115.5
  1100.4
  1321.8
  1634.2
  1577.7
  1762.5
  1622.9
  1736.1
  1769.2
  1747.8
  1457.2
  1558.6
  1559.0
  1557.8
  1467.0
  1576.3
  1553.3
  1487.4
  1536.9
  1533.4
  1529.4
  1535.9
  1622.8
  1641.4
  1622.8
  1742.4
  1622.7
  1688.1
  1527.9
  1740.8
  1668.1
  1622.7
  1668.1
  1583.8
  1577.0
  1514.2
  1574.3
  1514.4
  1437.3
  1513.8
  1413.4
  1278.1
  1175.9
  1317.4
  1284.4
  1403.7
  1499.0
  1523.3
   946.7
   711.0
   651.1
   677.2
   623.8
   886.9
   503.7
   711.1
   492.4
   686.5
   539.1
   443.0
   538.1
   461.5
   623.9
   527.8
   533.9
   440.4
   481.2
   550.7
   711.9
   509.0
   692.2
   889.9
   616.5
   994.9
   939.7
   763.1
   922.0
   685.9
  1374.9
  1360.0
  1075.0
  1624.8
  1734.3
  1737.4
  1747.8
  1769.1
  1740.8
  1747.8
  1747.8
  1747.8
  1769.1
  1769.1
  1757.7
  1622.8
  1757.6
  1751.4
  1752.0
  1751.2
  1622.8
  1750.2
  1622.8
  1622.8
  1622.8
  1765.1
  1622.9
  1767.3
  1767.4
  1767.4
  1622.7
  1622.7
  1622.7
  1622.7
  1622.6
  1622.8
  1769.0
  1622.8
  1622.8
  1673.5
  1732.8
  1769.0
  1622.8
  1673.5
  1678.6
  1682.5
  1622.8
  1544.2
  1562.4
  1539.9
  1478.5
  1171.8
  1038.5
  1144.3
   891.1
   811.9
   857.8
  1094.2
   620.5
   442.8
   526.5
   728.4
   641.1
   651.8
   444.4
   455.9
   617.1
   399.9
   472.0
   429.0
   501.4
   620.4
   642.3
   659.8
  1068.2
  1049.7
   902.9
  1741.0
  1662.3
  1740.8
  1622.9
  1769.1
  1622.9
  1622.9
  1693.6
  1769.0
  1662.5
  1622.8
  1769.1
  1622.8
  1622.8
  1769.1
  1769.0
  1769.0
  1769.1
  1691.3
  1622.9
  1768.6
  1622.6
  1622.6
  1622.8
  1622.8
  1622.6
  1622.9
  1769.0
  1769.0
  1622.9
  1673.5
  1622.8
  1673.5
  1622.8
  1622.8
  1622.8
  1713.3
  1675.1
  1706.2
  1669.6
  1485.7
  1250.5
  1349.3
   655.9
   763.1
   770.9
   651.3
   677.3
   884.6
   720.9
   751.8
   745.8
   687.8
   600.5
   699.1
   616.1
   688.1
   526.1
   479.0
   599.6
   469.6
   306.8
   474.6
   574.5
   617.6
   398.0
   461.8
   548.8
   589.8
   450.6
   597.3
   610.1
   574.9
   747.6
   703.0
   735.0
   743.1
   731.7
   942.4
  1148.6
  1126.6
  1271.0
  1144.2
  1029.6
  1153.9
  1174.4
  1723.5
  1767.2
  1767.1
  1637.7
  1769.1
  1769.1
  1769.1
  1769.0
  1769.0
  1769.2
  1662.5
  1769.1
  1769.1
  1769.2
  1698.6
  1769.2
  1622.8
  1622.7
  1622.6
  1622.6
  1622.7
  1622.6
  1622.6
  1622.6
  1622.6
  1769.1
  1622.9
  1769.0
  1622.9
  1622.6
  1768.9
  1622.9
  1768.9
  1768.9
  1764.5
  1707.4
  1496.1
  1536.8
  1764.1
  1243.7
  1214.1
  1224.4
  1294.5
   940.7
  1130.1
  1092.8
  1145.7
   805.6
  1036.5
  1099.0
   983.1
   922.0
   984.6
   841.7
   837.9
   830.5
   724.1
   883.1
   734.9
   677.4
   459.5
   539.7
   425.7
   549.4
   539.6
   460.6
   632.6
   463.3
   667.1
   765.9
   786.1
   810.3
   963.0
  1008.5
   907.6
   968.2
  1131.5
  1093.2
  1047.6
   978.8
  1027.0
  1140.7
  1326.8
  1410.9
  1374.4
  1548.1
  1435.1
  1558.1
  1399.1
  1675.5
  1656.3
  1769.1
  1722.2
  1623.1
  1769.1
  1769.1
  1769.1
  1623.1
  1769.0
  1662.5
  1769.1
  1622.8
  1769.1
  1769.1
  1698.6
  1654.0
  1698.6
  1698.6
  1769.2
  1769.0
  1622.9
  1622.7
  1622.7
  1622.7
  1769.1
  1769.1
  1622.9
  1769.1
  1769.1
  1622.9
  1622.9
  1622.9
  1769.1
  1769.0
  1622.7
  1758.5
  1768.1
  1622.6
  1768.1
  1695.9
  1710.2
  1633.1
  1690.1
  1137.5
  1251.2
  1274.1
  1174.7
   938.6
  1145.1
   792.5
   880.7
   680.8
   853.3
   577.0
   658.8
   709.5
   493.9
   483.6
   604.3
   431.9
   602.4
   447.4
   471.5
   444.7
   670.6
   664.5
   653.0
   759.5
   750.6
   836.4
  1031.7
   954.3
   987.7
  1057.7
   828.5
  1104.2
  1089.1
  1408.8
  1374.3
  1671.4
  1649.8
  1600.7
  1769.3
  1652.0
  1623.1
  1622.9
  1622.8
  1687.1
  1769.1
  1654.0
  1654.0
  1649.5
  1769.2
  1769.2
  1769.1
  1622.9
  1769.0
  1769.1
  1769.0
  1769.1
  1769.1
  1756.9
  1769.0
  1769.1
  1769.0
  1769.0
  1678.5
  1768.8
  1622.6
  1678.5
  1622.6
  1622.6
  1626.0
  1721.4
  1693.0
  1619.5
  1414.0
  1317.5
  1407.1
   870.9
   879.7
   616.0
   488.1
   499.6
   554.9
   352.2
   561.2
   442.6
   507.5
   524.5
   618.2
   555.3
   787.9
   527.8
   709.4
   658.3
   852.3
   778.9
   616.0
   740.3
   790.8
   870.9
  1043.7
  1115.4
  1307.1
  1388.8
  1617.2
  1654.2
  1552.0
  1769.1
  1574.9
  1769.1
  1769.1
  1649.5
  1622.9
  1649.5
  1649.5
  1769.1
  1769.0
  1769.2
  1622.9
  1769.2
  1622.8
  1769.1
  1622.7
  1769.1
  1769.1
  1622.7
  1769.1
  1622.7
  1769.1
  1622.6
  1622.8
  1678.5
  1678.5
  1758.5
  1768.8
  1743.1
  1622.6
  1627.6
  1512.0
  1610.6
  1144.6
  1124.5
  1126.4
  1254.5
  1291.4
   963.7
  1110.3
   839.2
   925.7
   875.9
   768.0
   716.9
   806.2
   711.8
   601.8
   735.7
   656.7
   687.5
   689.7
   541.3
   478.3
   610.2
   719.9
   445.3
   591.4
   679.2
   596.5
   657.5
   480.8
   470.0
   605.0
   552.0
   536.0
   648.8
   576.0
   803.1
  1035.4
  1560.3
  1486.6
  1573.9
  1689.3
  1622.9
  1622.9
  1769.1
  1769.0
  1769.1
  1769.0
  1769.1
  1623.0
  1623.0
  1623.0
  1769.1
  1769.1
  1622.9
  1622.9
  1622.9
  1622.9
  1622.8
  1622.8
  1622.7
  1622.7
  1622.7
  1622.7
  1622.6
  1769.1
  1769.0
  1769.1
  1622.6
  1622.6
  1622.6
  1622.6
  1601.9
  1742.5
  1745.6
  1718.3
  1512.0
  1600.6
  1121.3
  1299.1
  1121.6
  1158.5
  1063.1
   962.1
  1116.8
   626.3
   956.4
   891.6
   695.1
   730.7
   510.2
   738.8
   612.7
   569.2
   844.3
   458.6
   431.6
   517.4
   382.4
   561.0
   496.9
   411.6
   577.9
   431.7
   429.6
   448.2
   383.0
   483.8
   547.9
   683.6
   548.6
   621.5
   728.9
   757.4
   603.4
   711.3
   652.7
   866.9
   734.8
   816.1
  1122.7
   948.6
  1067.8
   829.2
  1300.9
  1279.1
  1248.2
  1417.8
  1403.2
  1686.2
  1622.8
  1688.6
  1769.1
  1769.1
  1622.8
  1769.1
  1769.1
  1769.1
  1769.1
  1769.1
  1769.1
  1623.0
  1769.3
  1769.1
  1769.2
  1769.1
  1623.0
  1756.3
  1769.0
  1769.0
  1769.0
  1622.8
  1769.0
  1769.0
  1769.2
  1769.1
  1769.2
  1769.1
  1622.6
  1622.6
  1622.6
  1622.6
  1769.1
  1769.1
  1755.9
  1769.1
  1696.4
  1755.4
  1243.3
  1256.1
  1099.2
   753.5
   757.0
   664.6
   629.4
   641.8
   510.5
   503.8
   673.2
   687.5
   474.2
   616.5
   499.4
   634.2
   578.7
   477.8
   364.5
   529.6
   501.6
   598.7
   757.8
   671.8
   725.1
  1244.0
  1183.1
  1267.3
  1008.2
  1134.1
  1518.4
  1729.2
  1729.7
  1622.8
  1474.4
  1622.8
  1622.8
  1769.1
  1622.8
  1622.8
  1769.1
  1769.1
  1769.1
  1769.1
  1769.2
  1747.1
  1769.3
  1622.9
  1623.0
  1623.0
  1769.1
  1622.8
  1622.8
  1622.8
  1743.5
  1769.0
  1769.1
  1622.9
  1769.1
  1769.1
  1622.8
  1769.1
  1622.8
  1695.7
  1769.1
  1441.8
  1573.3
  1568.0
  1268.7
  1280.2
  1238.3
  1159.4
  1344.7
   984.5
   954.3
   992.9
   970.2
   820.2
   850.3
   819.8
   600.7
   442.0
   414.8
   653.4
   452.0
   552.2
   454.1
   319.6
   505.2
   448.7
   395.1
   565.5
   587.8
   655.2
   663.6
   468.8
   797.8
   772.4
   766.5
   631.4
   697.5
   768.2
   782.0
   796.2
   960.8
   964.8
  1461.7
  1769.1
  1769.1
  1769.1
  1751.3
  1622.7
  1622.8
  1622.7
  1768.9
  1622.7
  1622.8
  1623.0
  1769.1
  1768.9
  1622.8
  1623.0
  1622.8
  1622.8
  1769.1
  1769.1
  1769.1
  1622.9
  1769.2
  1769.2
  1743.5
  1743.5
  1769.2
  1769.2
  1763.6
  1769.1
  1769.1
  1769.1
  1769.1
  1769.1
  1769.1
  1769.1
  1751.9
  1769.1
  1769.1
  1697.8
  1603.1
  1612.0
  1696.1
  1565.5
  1593.8
  1365.8
  1405.5
  1187.0
   946.1
  1165.1
  1003.6
  1163.4
   624.9
   652.3
   911.3
   721.1
   752.5
   427.3
   483.1
   523.4
   414.0
   570.4
   482.4
   583.0
   563.5
   575.7
   632.3
   753.8
   585.9
   645.4
   811.6
   840.2
   704.4
   833.5
   852.9
  1018.9
   850.9
  1139.9
   819.2
  1111.2
  1067.0
  1010.5
  1544.8
  1313.0
  1537.5
  1371.4
  1750.5
  1567.3
  1769.1
  1622.7
  1622.7
  1622.7
  1623.0
  1769.0
  1623.0
  1623.0
  1622.8
  1769.2
  1769.2
  1752.8
  1769.2
  1769.2
  1769.2
  1769.2
  1769.2
  1769.2
  1769.1
  1769.1
  1761.3
  1699.3
  1769.1
  1769.1
  1751.7
  1622.9
  1750.4
  1738.7
  1750.7
  1737.9
  1633.9
  1622.9
  1388.7
  1366.2
  1103.0
  1388.0
  1139.9
   814.1
   777.2
   727.1
   716.7
   578.3
   567.7
   553.0
   692.0
   449.0
   649.1
   690.8
   481.1
   517.4
   582.4
   513.7
   414.0
   454.5
   591.4
   459.3
   537.0
   431.1
   391.8
   462.8
   588.7
   471.7
   531.5
   524.3
   809.5
   733.1
   564.6
   777.0
   799.6
   637.0
  1039.5
   868.1
  1567.6
  1346.0
  1565.2
  1769.1
  1769.1
  1768.9
  1584.3
  1622.8
  1768.9
  1697.9
  1622.7
  1622.7
  1622.7
  1622.7
  1769.3
  1769.3
  1769.3
  1622.8
  1622.8
  1622.8
  1622.8
  1622.8
  1769.2
  1769.2
  1769.2
  1688.2
  1622.7
  1769.2
  1769.1
  1769.1
  1769.1
  1688.2
  1769.1
  1622.8
  1622.8
  1769.1
  1699.3
  1699.3
  1699.3
  1769.2
  1622.9
  1622.9
  1622.9
  1423.3
  1584.3
  1633.9
  1578.9
  1065.5
   903.6
  1071.4
  1053.2
   989.6
   759.1
   997.4
   874.2
   835.2
   827.6
   592.5
   601.8
   837.8
   885.8
   887.2
   784.9
   833.8
   566.9
   506.0
   412.3
   466.6
   490.9
   430.8
   375.2
   573.0
   525.3
   621.0
   517.5
  1094.3
  1019.6
   968.1
  1516.6
  1585.7
  1504.1
  1582.3
  1622.8
  1622.8
  1596.7
  1697.9
  1697.9
  1769.3
  1623.0
  1769.2
  1769.1
  1769.1
  1623.0
  1769.1
  1769.2
  1769.1
  1769.1
  1769.2
  1769.2
  1769.2
  1622.7
  1622.7
  1622.8
  1622.8
  1622.8
  1622.8
  1622.9
  1769.0
  1757.3
  1622.9
  1622.9
  1622.9
  1622.8
  1622.8
  1622.8
  1622.8
  1769.2
  1769.2
  1566.6
  1683.5
  1554.9
  1714.4
  1723.6
  1726.8
  1723.0
  1383.2
  1428.8
  1149.5
  1378.6
  1284.8
  1191.7
  1156.1
  1285.6
   892.8
  1055.3
  1029.3
   766.4
   849.5
   862.4
   638.3
   695.1
   728.4
   502.3
   525.7
   577.0
   439.3
   510.2
   734.0
   493.8
   714.1
   587.4
   518.5
   693.1
   593.0
   688.3
   725.8
   669.3
   625.0
   859.6
   829.0
   604.6
   813.6
   664.1
   670.1
   857.5
   777.0
   947.1
  1082.0
  1024.3
  1491.7
  1253.8
  1356.2
  1661.0
  1702.4
  1704.1
  1700.6
  1769.2
  1622.9
  1734.6
  1769.3
  1623.0
  1769.2
  1623.0
  1769.1
  1769.2
  1769.2
  1769.2
  1769.2
  1622.9
  1622.9
  1688.2
  1769.2
  1769.0
  1769.0
  1693.2
  1769.1
  1622.7
  1769.0
  1768.9
  1769.2
  1769.2
  1622.7
  1622.9
  1544.5
  1769.2
  1769.2
  1231.7
  1395.6
   865.2
  1050.9
  1170.4
   811.7
   669.0
   811.6
   926.0
   641.4
   672.6
   593.1
   727.2
   801.5
   712.0
   703.3
   703.2
   431.5
   376.3
   483.3
   484.0
   739.9
   652.2
   581.9
   704.0
   531.1
   705.0
   542.7
   718.2
   739.1
   627.9
   616.0
   587.3
   906.2
   843.8
   955.8
   821.1
   927.2
   761.8
  1011.9
   977.5
   909.6
   787.3
  1013.8
  1078.6
  1233.3
  1661.1
  1507.8
  1708.6
  1735.8
  1735.9
  1769.3
  1769.3
  1769.3
  1769.3
  1769.0
  1769.1
  1659.5
  1769.1
  1769.2
  1769.2
  1769.2
  1769.0
  1688.2
  1769.1
  1769.0
  1769.0
  1622.8
  1769.1
  1769.0
  1622.7
  1622.7
  1622.7
  1622.8
  1768.9
  1769.0
  1622.7
  1622.7
  1622.8
  1769.2
  1554.1
  1542.6
  1769.2
  1364.8
  1506.3
  1181.8
  1233.4
  1069.1
   887.1
   864.2
   700.3
   606.1
   619.2
   533.8
   517.7
   510.8
   535.0
   602.1
   714.2
   537.7
   504.7
   583.6
   522.4
   561.9
   305.9
   408.9
   523.3
   537.9
   401.4
   522.5
   489.7
   437.7
   554.8
   815.1
   655.2
  1033.9
  1006.8
  1223.9
  1050.2
  1163.1
  1055.0
  1286.3
  1297.5
  1197.6