# vtk DataFile Version 3.0
divides
ASCII
DATASET UNSTRUCTURED_GRID
POINTS       7382 float
        1739.628        1162.515         337.518
        5619.053         992.545         350.029
        4574.080         969.951         315.796
        7453.700         912.266         360.743
        8143.434         981.201         315.254
       11194.955        1296.535         351.220
       10801.711         503.796         246.548
       13762.014        1031.093         362.603
       11890.958        1119.337         365.591
       14485.822        1179.048         339.022
       18360.571         978.489         345.569
       17356.751        1243.108         348.430
       20172.761        1032.079         363.842
       21280.526         509.828         268.844
       20863.504        1153.686         336.245
       24962.053         848.751         350.731
       23829.250        1139.508         336.130
       26335.807         878.215         345.513
       27391.385         998.677         319.396
       29636.227        1066.141         358.463
       30776.750         453.503         226.340
       30188.101        1022.475         323.108
       33452.735        1286.187         352.795
       33082.467         498.522         272.308
       34227.478        1061.120         367.406
       36982.901         863.898         300.570
       38841.873         512.543         259.794
       38270.964        1166.262         339.665
       37562.488         911.163         346.982
       40763.018         932.801         349.152
       41754.102        1186.936         342.729
       43337.775        1176.663         341.492
       45900.384         878.353         319.664
       46603.220         800.796         291.723
       50481.289         836.067         345.568
       49842.826        1185.849         344.982
       49277.852         563.706         249.253
       51853.431         812.859         349.697
       52895.169         948.722         311.990
       55277.567         949.256         354.922
       55887.157         940.728         311.355
       59078.166        1022.813         323.378
       61656.696         928.704         352.577
       60597.847         930.729         312.414
       63266.343        1036.559         362.399
       64366.694         543.486         251.693
       63863.757        1047.357         327.515
       67264.461        1128.112         337.510
       66796.772         524.962         254.122
       67921.905        1037.709         364.121
       70388.136        1244.545         351.430
       69895.897         481.911         267.729
       72130.836         873.079         302.057
       74472.045         962.366         357.621
       72747.005         893.656         350.429
       75606.012         448.065         232.127
       75119.404        1001.233         320.616
       76416.544        1082.450         339.910
       77817.452         924.110         365.821
       78584.896        1074.678         332.557
       79545.301         600.729         371.250
         767.073        1699.492         360.183
        1608.656        3148.057         367.994
         627.040        2730.247         371.900
        3135.519        1697.649         367.817
        4576.656        1897.324         222.963
        3732.603        2564.020         366.230
        5185.386        1634.456         353.555
        7141.500        2421.081         369.283
        7354.518        1652.645         356.100
        8974.688        2735.540         369.278
        9255.315        1267.044         361.948
       12975.597        1915.814         373.851
       11150.444        2243.838         191.676
       12851.464        2398.084         373.041
       10192.463        2910.720         369.276
       15884.657        1890.066         368.836
       17913.598        1853.289         349.537
       15915.337        2380.383         369.806
       17419.874        2839.792         359.876
       20156.880        1783.356         356.589
       20683.950        3257.357         370.541
       21518.024        2387.618         359.381
       21531.081        1624.068         338.741
       19868.531        2669.000         368.741
       22806.637        2376.048         363.683
       23067.714        1628.892         344.908
       23896.952        3154.810         369.903
       24720.530        2359.821         364.851
       24576.934        1672.715         356.734
       27329.544        2451.283         357.514
       28805.960        1608.474         368.408
       28725.707        2149.364         369.060
       26769.989        1565.410         353.237
       30223.315        2262.389         347.699
       34851.341        2459.928         372.559
       35224.469        1706.633         377.387
       36947.382        2397.961         361.620
       37643.400        1624.270         308.091
       39040.995        1752.498         354.945
       38140.431        3234.199         369.878
       39230.957        2692.116         368.748
       41001.487        2729.934         366.400
       42227.532        3084.994         367.945
       42760.938        2538.105         364.990
       42540.271        1860.911         352.277
       41146.425        1769.861         352.456
       44424.926        1671.860         358.309
       46457.814        2147.074         359.901
       47383.777        1464.759         341.332
       46179.076        1381.446         300.818
       50516.360        1647.558         311.469
       50544.980        2373.886         362.332
       49284.237        1755.965         358.792
       49074.182        2489.111         367.153
       52996.443        1895.679         222.522
       54402.575        1535.139         370.917
       52010.900        2279.246         366.338
       52202.686        1499.052         354.914
       55933.808        2739.638         366.686
       57404.008        1586.588         374.151
       55495.631        1704.639         222.523
       59072.301        1996.192         222.684
       59740.632        1576.086         354.326
       57855.372        2325.845         369.443
       61336.894        2371.459         366.881
       60269.517        1808.872         222.684
       61254.814        1571.980         355.982
       62954.391        2405.782         366.968
       63126.757        1656.107         344.194
       63876.268        1985.513         222.794
       67545.192        2015.674         222.803
       67136.529        2074.298         222.630
       67383.238        2764.804         364.723
       68266.469        1367.360         365.513
       66976.035        1887.539         222.795
       71160.995        1720.060         362.598
       71359.422        2430.328         366.862
       70155.053        2174.532         222.802
       73643.913        1535.272         371.888
       75335.918        2491.266         358.285
       73782.790        2189.311         371.424
       76967.714        1674.364         377.890
       79283.779        1667.221         306.785
       78673.944        2654.301         358.215
         581.862        3715.200         364.492
        4279.797        4173.282         369.037
        3602.614        3231.618         222.963
        2451.265        3754.041         367.282
        5772.978        3273.996         194.424
        6006.238        2069.409         222.963
        6223.333        3555.793         222.855
        6135.893        4689.443         369.666
        7444.220        3380.080         369.424
        5251.422        4140.024         366.925
        7131.352        4152.964         369.425
        9428.441        3862.739         222.855
        8905.712        4334.471         369.279
       10813.655        4124.172         369.303
        9967.903        2313.134         369.298
       14267.909        2840.684         223.028
       14882.157        4124.736         369.158
       16049.104        3167.972         370.563
       14526.536        3168.921         222.675
       13347.772        3464.953         369.957
       16613.538        4360.391         369.099
       17749.796        4330.272         366.319
       18077.023        2864.500         366.109
       23026.727        3841.907         369.849
       21215.787        3889.845         368.937
       26576.744        3800.254         369.368
       26514.417        3003.478         363.450
       24783.824        3975.503         369.656
       26718.575        2596.083         367.690
       28783.513        2997.955         369.024
       27213.506        3769.468         354.697
       31685.600        4112.210         369.064
       31906.577        2871.957         369.059
       30585.491        2220.392         368.916
       31562.058        1857.938         369.049
       34974.012        2967.530         371.657
       33640.273        4112.407         369.161
       34106.365        3839.564         369.170
       32553.557        3988.193         369.036
       33035.838        2179.444         363.337
       35800.276        3999.053         369.168
       41478.711        3758.660         368.366
       40215.681        3866.294         222.876
       41058.924        4158.609         365.566
       39132.045        4303.484         369.321
       44301.306        4214.096         368.875
       44891.567        2979.686         369.044
       44459.498        2377.652         367.249
       47003.243        2337.217         363.410
       47277.031        3684.715         369.120
       45521.985        3957.427         368.885
       47210.513        3002.607         364.700
       49697.088        3056.348         370.909
       48160.889        3802.252         336.301
       51159.133        4238.746         369.020
       49970.118        3534.403         369.311
       51496.661        2957.825         222.522
[...]
POINT_DATA       7382
SCALARS height float 1
LOOKUP_TABLE default
   337.5
   350.0
   315.8
   360.7
   315.3
   351.2
   246.5
   362.6
   365.6
   339.0
   345.6
   348.4
   363.8
   268.8
   336.2
   350.7
   336.1
   345.5
   319.4
   358.5
   226.3
   323.1
   352.8
   272.3
   367.4
   300.6
   259.8
   339.7
   347.0
   349.2
   342.7
   341.5
   319.7
   291.7
   345.6
   345.0
   249.3
   349.7
   312.0
   354.9
   311.4
   323.4
   352.6
   312.4
   362.4
   251.7
   327.5
   337.5
   254.1
   364.1
   351.4
   267.7
   302.1
   357.6
   350.4
   232.1
   320.6
   339.9
   365.8
   332.6
   371.3
   360.2
   368.0
   371.9
   367.8
   223.0
   366.2
   353.6
   369.3
   356.1
   369.3
   361.9
   373.9
   191.7
   373.0
   369.3
   368.8
   349.5
   369.8
   359.9
   356.6
   370.5
   359.4
   338.7
   368.7
   363.7
   344.9
   369.9
   364.9
   356.7
   357.5
   368.4
   369.1
   353.2
   347.7
   372.6
   377.4
   361.6
   308.1
   354.9
   369.9
   368.7
   366.4
   367.9
   365.0
   352.3
   352.5
   358.3
   359.9
   341.3
   300.8
   311.5
   362.3
   358.8
   367.2
   222.5
   370.9
   366.3
   354.9
   366.7
   374.2
   222.5
   222.7
   354.3
   369.4
   366.9
   222.7
   356.0
   367.0
   344.2
   222.8
   222.8
   222.6
   364.7
   365.5
   222.8
   362.6
   366.9
   222.8
   371.9
   358.3
   371.4
   377.9
   306.8
   358.2
   364.5
   369.0
   223.0
   367.3
   194.4
   223.0
   222.9
   369.7
   369.4
   366.9
   369.4
   222.9
   369.3
   369.3
   369.3
   223.0
   369.2
   370.6
   222.7
   370.0
   369.1
   366.3
   366.1
   369.8
   368.9
   369.4
   363.4
   369.7
   367.7
   369.0
   354.7
   369.1
   369.1
   368.9
   369.0
   371.7
   369.2
   369.2
   369.0
   363.3
   369.2
   368.4
   222.9
   365.6
   369.3
   368.9
   369.0
   367.2
   363.4
   369.1
   368.9
   364.7
   370.9
   336.3
   369.0
   369.3
   222.5
   222.5
   222.5
   222.5
   222.7
   222.7
   222.7
   222.7
   361.4
   222.8
   369.1
   222.8
   222.6
   222.8
   222.8
   369.0
   222.8
   222.7
   222.8
   222.8
   369.8
   369.2
   222.6
   369.7
   369.2
   369.5
   369.7
   335.3
   329.1
   383.1
   348.8
   203.5
   368.9
   360.1
   369.6
   369.5
   369.4
   369.5
   222.9
   222.8
   222.7
   222.9
   222.7
   366.5
   369.1
   369.3
   369.2
   369.7
   368.9
   369.9
   223.2
   369.7
   369.7
   223.2
   223.2
   369.2
   222.7
   222.7
   222.7
   368.9
   369.4
   369.4
   346.1
   369.2
   369.2
   222.9
   321.2
   222.9
   369.3
   222.9
   369.0
   368.9
   368.9
   368.9
   369.2
   222.6
   222.7
   222.6
   222.7
   369.1
   369.0
   369.0
   369.1
   369.0
   369.1
   222.6
   222.6
   369.4
   222.6
   369.5
   222.6
   222.6
   222.6
   222.9
   222.9
   354.9
   360.3
   348.0
   368.1
   369.1
   369.4
   367.9
   222.8
   222.9
   222.6
   368.9
   369.4
   369.2
   369.4
   369.4
   369.1
   369.1
   369.4
   369.3
   369.2
   369.3
   223.1
   223.2
   223.1
   369.2
   223.1
   369.2
   368.9
   231.0
   369.0
   369.3
   368.9
   222.9
   369.1
   369.1
   222.9
   222.9
   222.9
   222.9
   368.8
   369.2
   369.3
   368.9
   222.6
   222.6
   222.6
   222.6
   222.6
   222.6
   369.2
   369.1
   369.0
   369.0
   369.5
   369.1
   369.0
   369.3
   369.2
   369.1
   369.5
   369.4
   369.4
   369.2
   369.1
   369.4
   222.9
   369.3
   369.4
   327.4
   369.4
   369.3
   369.5
   222.9
   352.2
   364.9
   367.6
   356.2
   360.6
   369.4
   369.7
   369.8
   369.2
   369.1
   222.9
   222.9
   222.6
   369.3
   369.4
   369.0
   369.1
   369.2
   369.2
   369.1
   222.9
   222.9
   222.9
   222.9
   223.1
   223.1
   223.1
   368.9
   231.0
   369.1
   223.2
   223.2
   231.0
   368.9
   369.1
   369.3
   369.7
   369.0
   369.1
   369.2
   369.4
   222.6
   369.1
   222.6
   222.6
   222.6
   369.0
   222.6
   368.9
   368.9
   369.0
   368.9
   222.6
   369.0
   369.1
   369.0
   369.4
   369.1
   369.1
   369.1
   369.2
   369.1
   369.4
   369.5
   369.1
   369.5
   369.1
   340.2
   369.3
   369.6
   369.6
   369.6
   369.1
   222.9
   222.9
   222.9
   370.9
   369.1
   363.8
   369.2
   353.0
   352.2
   354.2
   371.4
   363.8
   360.5
   361.4
   370.0
   222.7
   369.6
   369.2
   370.0
   369.3
   369.4
   222.6
   222.6
   222.6
   369.3
   296.2
   369.2
   369.4
   369.4
   369.1
   369.5
   369.1
   222.8
   222.8
   222.8
   368.9
   368.9
   369.0
   368.9
   369.0
   369.0
   369.1
   323.7
   369.0
   369.0
   369.0
   369.0
   222.7
   222.7
   222.7
   222.7
   368.9
   369.0
   369.0
   368.9
   369.0
   369.0
   222.6
   222.7
   222.7
   369.0
   369.0
   369.5
   222.8
   369.0
   222.8
   369.5
   222.8
   369.4
   369.3
   369.2
   222.8
   222.8
   222.8
   369.6
   369.1
   369.0
   369.5
   369.1
   356.7
   361.3
   372.8
   361.4
   369.6
   362.1
   351.0
   368.9
   222.7
   368.9
   222.7
   222.7
   222.7
   258.7
   369.3
   222.7
   222.7
   222.7
   222.7
   222.6
   369.4
   369.3
   369.3
   369.2
   369.1
   325.6
   369.5
   222.8
   369.4
   369.1
   345.2
   369.4
   222.8
   369.3
   369.5
   368.9
   369.0
   369.3
   369.0
   369.0
   222.7
   369.0
   369.0
   369.0
   369.3
   222.7
   222.7
   369.1
   369.3
   369.3
   222.7
   369.4
   369.7
   369.6
   369.1
   369.0
   369.0
   369.0
   369.0
   222.8
   369.1
   222.8
   222.8
   368.9
   369.1
   369.2
   369.0
   369.1
   369.1
   222.8
   222.8
   369.0
   369.0
   369.1
   369.1
   369.0
   360.9
   366.4
   368.6
   250.1
   368.8
   366.7
   290.8
   368.9
   368.9
   368.9
   368.9
   368.9
   222.7
   222.7
   258.7
   258.7
   258.7
   222.6
   369.3
   310.7
   369.1
   222.6
   325.6
   369.3
   369.2
   222.6
   222.8
   369.4
   222.7
   222.5
   368.9
   368.9
   368.9
   369.3
   369.2
   369.4
   369.0
   369.1
   369.2
   369.0
   369.3
   222.9
   369.2
   222.7
   369.0
   369.0
   368.9
   369.0
   222.7
   222.7
   222.7
   222.8
   369.0
   369.1
   369.0
   222.8
   369.1
   369.0
   369.1
   369.1
   369.4
   369.6
   369.0
   369.0
   369.1
   369.0
   369.1
   369.0
   369.0
   369.0
   222.7
   222.7
   222.7
   222.7
   294.4
   299.9
   342.1
   364.6
   353.9
   357.4
   366.6
   368.9
   333.1
   369.0
   368.9
   369.0
   369.1
   369.1
   369.4
   369.4
   369.1
   222.7
   222.6
   369.4
   222.6
   222.6
   369.2
   325.6
   369.2
   369.6
   222.9
   295.9
   222.5
   369.2
   222.5
   222.6
   222.7
   368.9
   222.8
   368.9
   369.0
   222.8
   222.7
   222.8
   369.0
   222.8
   369.2
   369.1
   222.8
   369.0
   369.0
   369.0
   369.0
   368.9
   222.7
   222.8
   222.8
   222.8
   369.0
   369.4
   369.6
   369.5
   369.0
   369.1
   369.1
   365.9
   369.0
   369.0
   369.1
   369.5
   368.9
   222.7
   369.1
   365.9
   222.7
   361.5
   364.0
   222.7
   362.9
   369.7
   369.7
   365.0
   369.1
   369.3
   369.0
   222.8
   369.1
   369.1
   369.1
   369.1
   222.7
   222.6
   222.6
   222.6
   222.7
   369.1
   369.1
   369.1
   369.1
   325.6
   369.2
   222.9
   369.1
   369.1
   222.9
   222.9
   222.9
   369.4
   369.0
   369.0
   368.9
   352.9
   222.7
   222.8
   368.9
   242.2
   222.8
   222.7
   222.8
   222.8
   222.8
   369.1
   369.5
   222.8
   369.0
   369.1
   369.1
   369.5
   369.3
   369.3
   363.3
   369.3
   222.7
   369.0
   369.1
   369.0
   222.7
   369.0
   369.0
   369.1
   369.0
   222.7
   222.7
   222.7
   222.7
   352.4
   358.2
   366.9
   364.3
   288.6
   367.1
   344.9
   366.9
   363.0
   222.7
   369.5
   222.9
   369.6
   222.8
   222.9
   222.9
   222.8
   222.8
   369.0
   369.1
   369.3
   369.1
   369.1
   369.1
   369.1
   369.2
   369.5
   369.3
   336.8
   369.0
   369.0
   369.0
   222.7
   369.0
   368.9
   369.1
   222.7
   222.7
   222.7
   369.2
   281.1
   369.1
   222.6
   369.1
   369.0
   369.0
   369.1
   222.8
   369.2
   369.2
   369.1
   369.1
   369.2
   222.7
   222.7
   222.7
   222.7
   369.1
   369.0
   369.3
   222.8
   222.7
   369.0
   369.0
   369.5
   369.0
   369.1
   369.3
   222.7
   362.7
   369.3
   377.0
   346.4
   361.5
   222.7
   222.7
   222.9
   222.9
   222.9
   222.9
   222.9
   222.9
   369.5
   369.3
   369.0
   369.1
   369.0
   369.0
   369.0
   369.1
   369.3
   369.0
   369.1
   369.1
   369.2
   369.1
   369.1
   369.3
   369.3
   369.2
   369.2
   369.1
   222.7
   222.7
   222.7
   222.7
   242.2
   222.8
   369.2
   368.9
   369.2
   222.6
   222.6
   222.6
   222.6
   222.6
   222.8
   369.5
   222.8
   222.7
   369.0
   369.1
   369.0
   369.0
   369.1
   369.1
   222.7
   369.0
   369.0
   369.0
   369.0
   369.5
   369.0
   222.7
   222.8
   369.3
   369.2
   362.9
   363.8
   222.9
   363.9
   366.1
   360.6
   372.1
   369.4
   369.5
   369.3
   369.4
   369.2
   369.3
   369.2
   369.3
   369.4
   369.2
   258.5
   369.5
   222.7
   369.0
   369.0
   369.1
   369.0
   222.8
   369.2
   222.8
   222.8
   293.6
   369.1
   369.0
   222.7
   369.2
   222.7
   222.7
   369.1
   369.5
   369.3
   369.3
   291.4
   222.8
   368.9
   222.6
   222.6
   222.7
   222.7
   222.7
   222.8
   369.1
   369.0
   222.7
   368.9
   222.7
   368.9
   222.7
   222.7
   222.7
   369.7
   369.8
   368.9
   369.5
   369.0
   369.2
   222.8
   368.8
   222.8
   222.8
   369.0
   369.1
   369.1
   369.6
   222.9
   369.3
   369.1
   222.9
   222.9
   354.6
   359.0
   334.1
   249.8
   366.0
   360.4
   366.4
   345.7
   347.1
   369.3
   369.3
   369.4
   369.1
   369.2
   369.6
   222.9
   369.6
   369.1
   369.4
   369.4
   369.5
   222.7
   368.9
   369.4
   369.1
   277.2
   369.2
   369.2
   369.1
   369.1
   369.4
   369.5
   368.9
   369.2
   369.6
   369.0
   369.0
   369.5
   222.8
   222.6
   222.6
   222.6
   222.6
   222.6
   222.6
   222.6
   222.6
   369.3
   222.7
   369.3
   222.8
   222.6
   368.9
   222.7
   368.9
   368.9
   369.0
   222.7
   369.1
   222.7
   369.2
   222.7
   343.6
   368.6
   369.1
   369.1
   369.1
   369.1
   369.2
   369.3
   369.4
   369.3
   369.2
   369.5
   355.3
   369.2
   358.5
   361.8
   223.0
   361.4
   223.0
   223.0
   223.0
   369.2
   369.2
   367.5
   222.9
   369.1
   369.3
   319.4
   222.9
   369.3
   368.9
   258.5
   368.9
   222.9
   369.2
   369.1
   369.1
   368.9
   223.0
   369.1
   369.1
   369.2
   223.0
   369.2
   368.9
   369.6
   222.7
   369.4
   369.3
   369.0
   369.0
   369.0
   369.0
   369.6
   369.1
   222.8
   222.7
   222.7
   222.7
   369.2
   369.0
   222.8
   369.3
   369.0
   222.8
   222.8
   222.8
   369.5
   369.0
   222.6
   368.8
   368.9
   222.6
   369.1
   222.8
   369.2
   369.0
   222.6
   222.7
   369.1
   369.1
   369.5
   369.7
   369.1
   222.7
   369.3
   369.4
   222.7
   367.4
   368.7
   371.2
   285.4
   357.4
   363.6
   365.0
   359.6
   369.8
   369.8
   223.0
   369.7
   369.1
   223.0
   369.1
   222.7
   369.2
   369.2
   369.3
   369.1
   222.9
   222.8
   368.9
   369.0
   222.8
   369.5
   369.0
   223.0
   222.7
   222.7
   368.9
   369.3
   368.9
   368.9
   368.9
   369.5
   369.2
   369.0
   222.8
   369.1
   369.1
   369.0
   369.3
   369.4
   356.9
   369.1
   369.0
   369.0
   369.1
   369.0
   369.0
   222.6
   369.0
   222.6
   222.6
   369.0
   368.9
   222.8
   222.7
   369.0
   369.0
   369.1
   369.0
   222.7
   369.1
   369.1
   222.7
   222.7
   222.7
   369.1
   369.0
   369.1
   369.2
   365.2
   369.2
   344.5
   363.4
   359.0
   361.7
   223.0
   223.0
   223.0
   223.0
   222.7
   369.6
   369.0
   369.0
   222.8
   369.1
   222.6
   369.0
   369.0
   369.0
   369.0
   222.6
   369.1
   369.1
   355.6
   222.7
   368.9
   368.9
   369.2
   369.2
   369.3
   222.8
   369.1
   222.6
   369.6
   222.7
   369.3
   369.1
   222.7
   369.0
   222.7
   369.1
   222.7
   222.7
   369.0
   368.9
   368.9
   369.1
   368.8
   222.6
   368.8
   369.0
   369.0
   222.6
   369.3
   369.0
   222.7
   222.7
   222.7
   222.7
   222.7
   222.7
   369.0
   369.0
   222.6
   369.0
   369.2
   367.9
   368.5
   362.8
   327.2
   366.5
   347.7
   367.7
   367.6
   367.5
   369.0
   369.1
   369.3
   222.7
   222.7
   369.1
   369.1
   369.2
   222.6
   222.6
   222.6
   369.2
   222.7
   222.7
   369.2
   369.1
   369.5
   369.3
   369.1
   222.9
   222.9
   222.9
   369.1
   369.6
   222.8
   222.8
   222.8
   222.8
   222.6
   222.7
   222.7
   222.7
   222.7
   222.7
   222.6
   369.3
   369.2
   369.0
   222.6
   222.6
   222.6
   222.6
   368.9
   368.8
   222.6
   222.6
   222.6
   222.7
   369.1
   369.0
   368.9
   369.3
   368.9
   222.6
   222.6
   222.6
   369.3
   369.6
   369.5
   351.8
   360.5
   369.7
   366.3
   312.6
   361.6
   369.2
   346.1
   361.8
   363.0
   366.2
   369.1
   369.1
   369.1
   369.2
   369.0
   369.0
   368.9
   369.0
   369.0
   222.7
   369.1
   369.2
   369.4
   222.7
   369.3
   222.7
   222.6
   369.5
   222.7
   369.2
   369.5
   222.6
   369.6
   369.1
   369.4
   369.3
   369.1
   369.3
   223.0
   369.3
   369.1
   369.5
   369.1
   223.0
   356.3
   369.3
   369.2
   368.9
   222.7
   368.9
   369.0
   369.0
   369.0
   369.7
   369.0
   222.6
   222.6
   222.6
   222.7
   369.0
   369.0
   369.1
   369.0
   369.1
   369.1
   369.1
   369.1
   369.0
   222.7
   222.7
   222.7
   222.7
   222.6
   287.2
   222.7
   222.7
   368.9
   222.6
   365.3
   363.0
   222.7
   368.9
   368.4
   369.2
   222.7
   369.5
   367.9
   368.8
   369.0
   369.2
   369.1
   222.7
   369.0
   222.7
   222.7
   222.7
   222.7
   222.7
   222.7
   222.7
   222.7
   222.6
   222.7
   369.3
   222.8
   222.8
   369.2
   369.0
   369.1
   369.1
   369.1
   347.1
   369.3
   222.7
   223.0
   223.0
   369.0
   222.7
   222.7
   222.7
   369.0
   369.1
   369.4
   222.8
   369.0
   369.0
   222.7
   369.0
   222.7
   369.1
   369.2
   369.0
   369.5
   356.3
   369.1
   369.2
   222.6
   222.6
   222.6
   222.7
   222.7
   222.7
   374.0
   322.0
   358.6
   359.4
   260.4
   353.4
   351.5
   349.7
   367.3
   369.4
   222.7
   369.0
   222.7
   222.7
   369.2
   369.2
   222.7
   369.2
   222.7
   222.7
   369.1
   369.2
   222.8
   369.2
   369.3
   369.2
   222.8
   222.6
   222.8
   222.6
   369.2
   222.6
   222.8
   222.9
   369.0
   369.0
   222.7
   222.9
   222.7
   369.1
   369.1
   369.1
   369.1
   222.8
   369.0
   369.6
   369.0
   369.0
   369.1
   369.0
   363.5
   369.0
   369.0
   369.0
   369.5
   369.4
   369.0
   369.8
   369.3
   369.1
   369.1
   369.0
   369.0
   369.1
   298.4
   369.1
   369.0
   222.7
   369.1
   369.4
   369.7
   295.6
   369.4
   369.2
   287.2
   369.3
   369.1
   369.1
   222.5
   222.7
   222.7
   369.0
   369.0
   355.9
   369.2
   366.5
   370.0
   369.2
   222.7
   222.7
   222.7
   222.8
   364.8
   369.3
   369.2
   369.1
   369.3
   369.5
   369.0
   222.8
   369.7
   369.0
   222.8
   222.8
   369.1
   222.6
   222.6
   222.6
   222.9
   369.5
   222.9
   222.9
   222.7
   369.6
   369.4
   352.9
   369.0
   369.1
   369.4
   369.7
   369.7
   369.1
   369.8
   369.1
   361.6
   369.0
   369.2
   369.0
   369.2
   222.8
   369.2
   369.3
   369.3
   369.2
   222.7
   222.6
   369.1
   222.8
   368.8
   222.6
   368.9
   287.2
   369.2
   368.9
   369.1
   369.2
   222.7
   369.1
   222.7
   222.7
   369.2
   369.1
   361.7
   354.9
   374.1
   369.3
   281.3
   366.6
   354.7
   336.4
   363.6
   368.8
   222.7
   369.4
   222.7
   369.5
   222.8
   222.8
   222.8
   222.7
   369.2
   369.2
   369.2
   369.2
   369.2
   222.7
   222.8
   369.0
   369.0
   222.6
   222.6
   222.6
   222.6
   369.5
   369.5
   369.4
   222.7
   222.7
   222.7
   222.7
   369.2
   369.2
   369.0
   222.7
   369.4
   369.0
   369.0
   369.6
   369.0
   369.3
   222.7
   222.7
   369.2
   369.1
   369.0
   369.0
   369.3
   222.8
   222.8
   222.7
   222.6
   222.7
   222.8
   222.8
   369.1
   369.1
   369.1
   369.0
   222.7
   222.7
   371.0
   353.7
   222.7
   368.7
   365.1
   369.3
   222.8
   222.8
   222.7
   369.0
   369.0
   369.1
   368.9
   369.1
   369.2
   369.2
   369.2
   369.1
   222.7
   222.7
   222.7
   222.7
   222.7
   222.8
   222.8
   369.0
   369.1
   369.6
   222.9
   369.1
   369.1
   369.7
   222.9
   369.1
   369.7
   369.1
   369.5
   369.6
   369.1
   369.6
   222.7
   222.7
   222.8
   222.7
   222.7
   222.7
   222.7
   369.0
   357.3
   222.7
   222.7
   222.7
   222.7
   222.7
   222.7
   222.7
   369.1
   369.4
   369.1
   369.2
   351.0
   369.6
   369.1
   369.4
   369.1
   369.5
   369.0
   369.2
   368.8
   369.0
   368.9
   368.9
   339.2
   295.7
   222.9
   369.3
   369.0
   369.3
   369.1
   369.0
   222.7
   222.7
   364.3
   365.2
   360.6
   369.3
   369.0
   369.2
   369.2
   369.1
   222.8
   369.0
   369.0
   222.9
   369.3
   222.8
   222.8
   369.1
   369.1
   330.2
   369.0
   369.0
   369.0
   369.2
   222.8
   369.1
   369.5
   369.0
   369.5
   222.8
   369.2
   369.1
   222.9
   369.1
   222.9
   369.1
   369.1
   369.1
   369.1
   222.8
   222.8
   369.1
   369.1
   369.1
   369.0
   295.8
   369.4
   222.6
   369.2
   368.9
   369.1
   369.2
   222.6
   222.8
   369.1
   369.1
   369.0
   369.1
   369.2
   369.1
   369.1
   347.3
   369.0
   369.0
   368.9
   369.0
   222.9
   369.3
   368.8
   369.1
   369.1
   222.9
   369.2
   369.2
   357.8
   362.1
   324.5
   351.1
   369.0
   359.1
   355.3
   369.1
   369.2
   222.7
   222.8
   222.9
   222.8
   222.8
   222.8
   222.8
   222.8
   222.8
   330.2
   222.8
   369.0
   222.8
   222.8
   369.0
   369.2
   369.2
   369.3
   369.5
   369.1
   369.5
   369.1
   369.1
   271.3
   369.2
   369.1
   369.1
   369.2
   222.8
   369.2
   369.1
   369.1
   369.1
   369.2
   222.8
   369.2
   369.0
   222.6
   222.6
   222.6
   222.7
   369.0
   369.1
   222.6
   222.6
   222.7
   369.1
   369.2
   369.4
   369.4
   222.8
   222.8
   222.8
   369.1
   369.1
   222.7
   222.7
   222.8
   369.4
   222.9
   222.9
   369.2
   369.3
   369.1
   365.9
   374.1
   365.0
   365.9
   266.2
   363.5
   357.5
   349.2
   355.6
   357.9
   222.7
   319.1
   222.7
   222.7
   222.7
   222.8
   222.8
   222.7
   222.9
   222.9
   369.3
   369.2
   222.7
   369.0
   369.0
   222.7
   369.4
   369.3
   333.8
   369.0
   369.2
   369.3
   369.1
   369.1
   369.1
   369.1
   369.1
   369.2
   369.1
   369.2
   222.8
   344.8
   369.5
   369.2
   369.2
   369.3
   369.1
   369.3
   369.1
   222.8
   369.1
   222.7
   222.9
   222.7
   222.7
   222.7
   369.0
   369.0
   369.1
   369.2
   369.0
   369.4
   369.0
   369.2
   369.5
   222.8
   369.4
   222.8
   222.8
   222.7
   222.8
   222.8
   369.5
   222.7
   369.5
   369.1
   369.0
   286.2
   367.9
   353.3
   369.0
   369.1
   370.5
   222.5
   369.0
   222.7
   222.7
   369.5
   222.9
   369.5
   369.4
   369.5
   222.9
   369.5
   222.7
   369.4
   222.7
   369.1
   222.9
   369.2
   369.4
   369.6
   369.2
   369.0
   223.0
   223.0
   223.0
   223.0
   369.1
   369.0
   369.1
   369.1
   369.2
   222.8
   369.1
   369.3
   369.4
   222.7
   369.2
   369.3
   222.8
   369.1
   369.0
   369.1
   222.8
   222.9
   222.9
   222.9
   369.0
   369.0
   296.0
   222.7
   222.7
   352.7
   369.3
   369.4
   369.2
   369.4
   222.8
   222.8
   222.8
   369.3
   222.7
   369.3
   222.7
   222.7
   222.7
   222.7
   369.1
   369.6
   222.7
   344.1
   363.5
   366.7
   335.0
   371.7
   368.0
   369.2
   356.8
   369.3
   222.5
   369.1
   369.0
   369.0
   222.5
   369.5
   369.6
   222.9
   287.2
   222.7
   369.4
   369.5
   369.0
   369.0
   287.2
   369.2
   369.3
   369.2
   369.4
   222.9
   335.3
   222.9
   222.9
   369.1
   369.5
   369.5
   369.1
   369.1
   369.6
   222.8
   222.6
   369.2
   369.1
   222.8
   369.1
   369.1
   222.7
   222.7
   368.9
   368.9
   222.8
   222.8
   222.8
   369.1
   369.1
   369.1
   369.1
   369.6
   368.8
   369.6
   369.1
   369.0
   222.9
   369.5
   222.7
   369.5
   355.1
   222.7
   369.3
   369.3
   368.9
   369.4
   222.7
   369.7
   369.2
   369.2
   369.3
   356.1
   369.2
   369.0
   222.7
   222.7
   365.5
   365.6
   369.1
   365.2
   370.7
   369.6
   365.7
   222.5
   222.5