# vtk DataFile Version 3.0
divides
ASCII
DATASET UNSTRUCTURED_GRID
POINTS       8118 float
        1763.706        1362.983         366.537
        5691.137        1079.898         368.581
        4507.161        1257.262         356.813
        7821.942        1231.081         410.892
        8176.840        1209.725         348.712
       11194.509        1411.093         369.060
       10798.443         507.929         248.571
       13897.243        1176.033         387.591
       11617.173        1456.458         409.525
       14485.620        1176.262         343.377
       18404.391        1034.863         358.389
       17258.436        1745.546         401.947
       20639.327        1527.094         426.290
       21372.688         607.609         294.045
       20884.736        1539.405         382.103
       25045.644         922.498         367.665
       23793.477        1378.237         367.507
       26292.759         921.961         357.721
       27439.971        1252.211         355.580
       30016.332        1550.754         418.316
       30887.953         587.361         281.265
       34432.231        1589.369         406.075
       33459.970        1222.996         351.147
       33105.249         476.576         263.721
       34626.425        1595.586         397.889
       37087.224        1356.653         368.358
       38840.666         511.143         259.084
       38267.334        1199.066         348.495
       37203.375        1301.857         404.505
       40697.848        1005.432         365.487
       41810.352        1620.191         393.401
       43341.500        1208.482         350.329
       45889.335         897.778         326.394
       47640.906        1177.309         401.177
       50494.644         848.737         353.291
       49957.507        1745.896         408.134
       49089.833         892.707         326.087
       51814.078         846.653         361.568
       52904.517        1041.914         329.138
       55444.847        1130.201         386.651
       55866.733        1110.990         339.369
       59081.768         992.578         323.086
       61886.233        1177.534         395.996
       60513.764        1317.852         369.524
       63599.311        1434.947         420.938
       64354.695         525.702         243.458
       63809.719        1462.766         385.153
       67268.501        1198.818         353.745
       66793.429         529.313         256.229
       67750.818        1239.894         400.840
       70383.953        1683.420         406.276
       69901.354         476.694         264.831
       72136.274         909.363         311.350
       74675.632        1187.040         398.512
       72694.217         948.960         367.199
       75645.432         491.568         254.665
       75106.215        1165.081         349.187
       76243.934        1569.709         405.118
       78333.126        1392.476         439.437
       78639.469        1391.872         379.808
       79477.905         689.769         593.479
         865.583        1712.269         490.841
        1602.404        3186.767         533.319
         728.493        2654.243         532.991
        3395.347        1670.287         550.971
        4892.467        2655.939         564.961
        3510.009        2881.320         599.328
        4927.716        1609.060         426.723
        7635.779        2995.751         562.307
        9135.080        1928.403         508.843
        7389.166        2231.387         519.779
        7628.004        1631.857         435.221
        9183.401        3058.529         578.013
        8864.524        1388.815         457.241
       12468.786        1933.948         493.524
       12670.841        2352.529         515.320
       10600.428        2155.317         387.809
       16779.893        1910.014         504.397
       17466.181        1896.538         427.021
       16739.079        2090.611         531.269
       17357.842        2548.004         580.253
       20508.191        1792.583         430.988
       20755.918        2771.132         584.457
       21442.241        2316.001         556.324
       21297.136        1690.265         439.562
       20435.134        2192.859         513.538
       24387.821        2169.155         484.181
       22640.139        2481.040         545.468
       23153.907        1650.199         434.872
       24309.131        1710.792         430.580
       27277.161        2701.283         540.859
       29496.499        1611.268         606.127
       29172.592        2349.667         596.398
       26991.180        1576.754         416.754
       30284.882        1675.996         475.174
       30286.612        1422.581         499.796
       30167.468        2032.637         553.213
       32139.053        1996.823         414.514
       36006.313        1584.958         658.364
       37272.230        1481.328         416.640
       37031.019        1857.553         517.517
       39049.557        1751.637         397.485
       38079.616        4743.529         559.135
       39386.121        2820.352         475.327
       41428.597        2285.177         530.733
       42054.304        2534.200         572.561
       42294.012        2191.813         518.752
       42198.151        1858.409         439.330
       41505.250        1814.260         432.048
       44450.579        1666.877         419.203
       49601.320        1481.980         571.017
       50152.986        2000.823         468.896
       49610.658        1791.639         515.299
       49162.227        2424.835         677.384
       54579.420        1534.738         516.167
       52144.065        2174.677         456.682
       52282.679        1503.242         395.769
       57109.253        3230.778         584.160
       56886.482        1568.773         498.241
       54083.206        2465.479         574.068
       60162.402        1538.508         412.909
       57973.625        3504.828         498.864
       61305.792        2340.521         618.918
       60173.160        1950.773         497.754
       61005.179        1552.519         499.026
       63006.907        2358.383         622.116
       63373.492        1656.268         467.875
       63877.022        1988.214         442.267
       68281.288        1964.485         450.763
       68152.107        1415.210         439.909
       69935.979        2420.355         572.637
       70787.179        1816.071         476.086
       70883.556        2182.053         532.686
       70100.205        1981.342         425.959
       73972.296        1555.172         500.875
       73772.496        3808.087         610.145
       73694.743        2228.155         541.615
       76896.243        1672.380         632.908
       79215.031        1673.673         451.162
       78679.800        2410.488         515.320
         661.592        3785.796         503.166
        4393.161        4281.088         775.765
        3779.379        3239.398         635.883
        2972.577        3414.029         580.167
        5631.754        4155.185         600.099
        5396.848        3290.084         387.807
        8935.614        5914.392         737.296
        8390.298        5009.055         710.916
        9970.145        3338.427         549.430
       10826.561        4129.797         688.593
        8879.171        3720.903         600.013
       10615.934        2587.502         415.166
       12166.600        2840.249         541.187
       16901.060        3361.234         536.416
       11799.673        4232.570         573.304
       17699.741        4111.246         512.243
       16384.771        3786.880         601.659
       17846.434        3154.448         451.030
       22557.799        4797.897         652.164
       21797.262        3908.998         585.984
       23442.249        3299.901         620.435
       21509.356        3519.800         559.853
       24074.144        3384.324         502.177
       26938.619        3068.261         480.190
       28557.063        4324.700         736.245
       27976.914        3053.216         660.876
       27213.115        3757.320         631.524
       30750.483        4211.776         600.909
       30958.914        3433.602         542.599
       34027.912        2518.754         390.210
       32158.778        2350.979         430.588
       35497.283        2662.881         532.654
       35143.813        2142.357         571.122
       41413.212        4432.310         512.365
       41657.932        3792.471         508.982
       38340.485        4860.765         568.488
       42979.833        4649.539         523.038
       44971.903        2970.718         506.184
       44345.341        2472.662         464.611
       46477.508        4627.711         551.037
       47697.917        3088.103         526.676
       47123.558        2260.588         484.317
       44962.586        4849.295         584.927
       47774.602        3323.047         506.724
       48656.285        3130.400         548.407
       48166.058        4023.185         640.243
       48379.864        4316.236         576.569
       52562.725        2973.594         471.661
       55505.737        3352.801         662.842
       52243.839        3943.283         594.190
       56377.961        3557.438         623.182
       54702.640        4341.360         804.029
       56171.812        4184.069         747.036
       61479.866        3171.027         543.708
       62305.281        3751.860         535.700
       62657.137        3088.480         502.268
       61137.478        3807.505         621.551
       65516.018        4147.173         532.316
       65799.164        3126.682         518.850
       67069.404        3682.794         700.369
       67421.488        3446.774         540.044
       67487.376        3418.042         554.953
[...]
POINT_DATA       8118
SCALARS height float 1
LOOKUP_TABLE default
   366.5
   368.6
   356.8
   410.9
   348.7
   369.1
   248.6
   387.6
   409.5
   343.4
   358.4
   401.9
   426.3
   294.0
   382.1
   367.7
   367.5
   357.7
   355.6
   418.3
   281.3
   406.1
   351.1
   263.7
   397.9
   368.4
   259.1
   348.5
   404.5
   365.5
   393.4
   350.3
   326.4
   401.2
   353.3
   408.1
   326.1
   361.6
   329.1
   386.7
   339.4
   323.1
   396.0
   369.5
   420.9
   243.5
   385.2
   353.7
   256.2
   400.8
   406.3
   264.8
   311.3
   398.5
   367.2
   254.7
   349.2
   405.1
   439.4
   379.8
   593.5
   490.8
   533.3
   533.0
   551.0
   565.0
   599.3
   426.7
   562.3
   508.8
   519.8
   435.2
   578.0
   457.2
   493.5
   515.3
   387.8
   504.4
   427.0
   531.3
   580.3
   431.0
   584.5
   556.3
   439.6
   513.5
   484.2
   545.5
   434.9
   430.6
   540.9
   606.1
   596.4
   416.8
   475.2
   499.8
   553.2
   414.5
   658.4
   416.6
   517.5
   397.5
   559.1
   475.3
   530.7
   572.6
   518.8
   439.3
   432.0
   419.2
   571.0
   468.9
   515.3
   677.4
   516.2
   456.7
   395.8
   584.2
   498.2
   574.1
   412.9
   498.9
   618.9
   497.8
   499.0
   622.1
   467.9
   442.3
   450.8
   439.9
   572.6
   476.1
   532.7
   426.0
   500.9
   610.1
   541.6
   632.9
   451.2
   515.3
   503.2
   775.8
   635.9
   580.2
   600.1
   387.8
   737.3
   710.9
   549.4
   688.6
   600.0
   415.2
   541.2
   536.4
   573.3
   512.2
   601.7
   451.0
   652.2
   586.0
   620.4
   559.9
   502.2
   480.2
   736.2
   660.9
   631.5
   600.9
   542.6
   390.2
   430.6
   532.7
   571.1
   512.4
   509.0
   568.5
   523.0
   506.2
   464.6
   551.0
   526.7
   484.3
   584.9
   506.7
   548.4
   640.2
   576.6
   471.7
   662.8
   594.2
   623.2
   804.0
   747.0
   543.7
   535.7
   502.3
   621.6
   532.3
   518.9
   700.4
   540.0
   555.0
   685.4
   575.8
   619.2
   565.9
   750.5
   685.1
   621.7
   669.9
   700.8
   570.4
   420.8
   435.3
   615.1
   432.2
   220.3
   563.4
   466.0
   643.8
   628.1
   706.5
   860.4
   659.5
   704.5
   875.7
   665.4
   767.0
   611.6
   805.3
   541.2
   446.4
   585.8
   534.6
   582.3
   618.7
   807.3
   729.8
   833.8
   724.0
   604.6
   701.6
   746.5
   665.7
   872.2
   976.3
   503.8
   536.3
   753.0
   758.7
   620.2
   627.2
   818.0
   770.9
   623.6
   687.4
   739.3
   780.7
   596.2
   781.8
   684.5
   537.4
   592.3
   717.3
   660.6
   815.2
   746.4
   651.5
   718.9
   758.7
   828.1
   613.9
   658.0
   573.8
   887.1
   873.4
   817.9
   727.7
   832.8
   860.4
   537.6
   601.6
   573.8
   644.3
   629.5
   635.3
   693.0
   709.1
   770.4
   740.9
   676.9
   757.8
   594.8
   721.8
   727.9
   883.4
   860.5
   478.7
   503.2
   434.9
   596.2
   757.8
   886.6
   717.6
   648.6
   651.8
   843.8
   897.4
   649.9
   738.5
   803.4
   753.0
   682.4
   700.7
   526.7
   684.2
   718.2
   946.8
   731.7
   890.5
   684.9
   807.5
   855.1
   965.9
   946.0
  1033.4
   883.7
   970.3
  1049.9
   563.2
   725.6
   868.0
   874.5
   651.7
   892.0
   864.7
   756.1
   783.8
   828.7
   991.0
   926.2
   766.3
   790.1
   949.2
   930.8
   919.7
   950.0
   772.2
   642.3
  1105.2
  1100.1
   929.3
   703.0
   595.9
   637.1
   658.0
   747.2
   722.1
   760.7
   912.9
   837.9
   867.8
  1022.8
  1021.2
  1036.4
   853.9
  1032.0
   892.2
   723.2
   896.5
   862.7
   893.3
   726.9
   707.9
   865.4
   889.4
   420.2
   559.0
   530.1
   433.9
   505.0
   455.5
   617.8
   581.3
  1007.4
   973.5
  1006.8
   918.2
   775.3
   920.5
   865.3
   956.1
  1059.2
  1078.2
   854.8
  1086.9
  1077.9
  1005.3
  1047.8
   923.0
  1008.2
  1024.8
   838.7
   956.0
   968.2
   781.5
   867.1
  1123.9
  1126.1
  1047.9
  1131.6
  1199.9
  1122.9
  1088.8
  1194.8
  1098.9
  1014.2
   669.5
   754.1
   948.6
  1013.3
  1001.6
   966.2
  1014.3
  1011.2
   961.2
   850.9
   830.5
  1056.9
  1082.5
  1091.3
  1067.5
  1068.5
  1044.2
  1161.5
  1096.4
  1145.7
  1159.1
  1112.7
  1122.8
  1142.4
  1026.1
  1114.9
  1136.2
  1118.4
   907.1
  1119.4
  1118.6
   984.4
  1113.3
   808.9
   811.3
   966.7
   990.7
   960.5
   923.6
   964.6
  1123.0
  1227.5
  1218.5
  1074.6
  1268.3
  1113.4
  1114.1
  1047.7
  1123.2
   743.7
   935.5
   836.8
   904.8
   588.0
   513.9
   550.7
   511.5
   438.9
   392.9
   397.2
   476.2
   513.6
   441.1
   475.9
   757.6
   730.7
   753.9
  1154.3
   980.1
  1195.7
  1083.9
  1071.4
  1060.7
  1212.1
  1089.0
  1246.0
  1116.4
  1252.2
  1252.5
  1096.6
  1065.6
  1142.4
  1189.0
  1269.2
  1269.2
  1122.9
  1122.9
  1122.9
  1020.6
  1208.3
  1171.0
  1015.8
  1226.9
  1229.7
  1175.6
  1122.8
  1194.1
  1258.9
  1176.4
  1122.8
  1173.4
  1176.1
  1122.8
  1122.8
  1122.8
  1122.8
  1122.8
  1194.8
  1195.2
  1269.0
  1269.0
  1242.5
  1242.5
  1086.2
  1122.8
  1122.8
  1186.8
  1269.1
  1143.5
  1185.9
  1186.8
   996.2
  1122.9
  1188.9
  1197.1
  1196.7
  1234.9
  1122.9
  1017.5
  1257.6
  1122.9
  1123.0
  1075.9
  1123.0
  1123.0
  1243.5
  1243.9
  1131.6
  1241.8
   680.2
   777.8
   864.4
   633.3
   545.8
   512.2
   538.7
   548.5
   569.1
   700.7
   672.2
   661.5
   922.9
   990.8
   929.9
   942.8
  1171.3
  1122.8
  1171.5
  1126.4
  1269.1
  1122.8
  1122.8
  1122.8
  1122.8
  1122.7
  1269.1
  1269.1
  1246.3
  1269.0
  1139.1
  1133.2
  1269.2
  1122.9
  1269.2
  1189.0
  1245.1
  1175.8
  1122.8
  1170.1
  1177.7
  1133.1
  1269.1
  1269.0
  1158.4
  1269.1
  1122.8
  1268.7
  1268.8
  1268.6
  1269.1
  1122.8
  1122.8
  1269.0
  1269.0
  1269.0
  1122.7
  1269.1
  1269.1
  1269.1
  1269.0
  1186.8
  1186.8
  1201.6
  1269.1
  1122.9
  1269.1
  1122.9
  1122.9
  1222.4
  1241.9
  1249.3
  1183.9
   996.6
  1247.7
  1241.4
  1145.1
  1096.7
   973.1
   863.5
   618.6
   800.8
   505.8
   434.8
   495.3
   261.5
   522.0
   619.5
   751.6
   918.1
   701.8
   766.5
  1014.9
  1042.9
   999.4
  1252.9
  1029.5
  1122.8
  1122.8
  1126.4
  1126.4
  1126.4
  1122.7
  1269.1
  1167.7
  1189.0
  1122.7
  1133.2
  1269.1
  1161.7
  1122.6
  1122.8
  1269.1
  1122.8
  1122.5
  1158.4
  1158.4
  1158.4
  1269.1
  1269.2
  1269.2
  1264.5
  1269.0
  1269.3
  1264.4
  1269.1
  1123.0
  1269.0
  1122.8
  1269.0
  1269.0
  1269.0
  1269.0
  1122.7
  1122.7
  1122.7
  1122.8
  1201.6
  1201.6
  1201.6
  1122.8
  1269.1
  1269.1
  1269.1
  1269.1
  1269.1
  1269.1
  1183.9
  1183.9
  1183.9
  1243.3
  1191.7
  1222.4
  1142.5
   720.0
   770.1
   618.6
   602.6
   523.3
   427.5
   347.2
   364.6
   466.7
   465.2
   552.4
   549.7
   429.2
   421.1
   777.6
   685.1
   600.3
   736.6
   783.2
   993.0
  1051.1
  1269.1
  1027.7
  1269.1
  1269.1
  1269.1
  1122.8
  1122.7
  1269.1
  1122.7
  1122.7
  1269.2
  1133.2
  1269.2
  1269.2
  1122.9
  1140.7
  1122.5
  1269.1
  1122.5
  1122.6
  1122.8
  1269.0
  1122.8
  1186.4
  1206.1
  1122.8
  1122.7
  1122.8
  1269.0
  1122.8
  1269.0
  1269.1
  1122.8
  1269.0
  1190.7
  1269.0
  1269.1
  1269.0
  1122.8
  1122.8
  1122.8
  1122.8
  1269.1
  1269.1
  1269.1
  1269.1
  1269.1
  1269.0
  1269.1
  1222.4
  1222.4
   982.7
  1189.4
  1059.9
  1195.1
  1027.0
   826.3
   862.1
   967.9
   718.7
   577.1
   616.2
   631.0
   454.9
   425.7
   458.2
   493.8
   644.4
   937.7
  1035.2
  1037.8
  1012.5
  1269.1
  1269.1
  1122.8
  1122.7
  1122.7
  1122.7
  1122.8
  1269.2
  1269.2
  1269.2
  1269.1
  1133.2
  1269.1
  1122.9
  1269.1
  1161.7
  1122.9
  1122.9
  1122.9
  1269.0
  1269.0
  1269.0
  1206.1
  1186.4
  1122.8
  1122.8
  1140.0
  1124.7
  1122.8
  1122.7
  1122.8
  1122.8
  1122.8
  1269.1
  1269.1
  1122.8
  1269.0
  1269.0
  1190.7
  1269.1
  1269.1
  1269.1
  1263.3
  1269.1
  1122.8
  1269.1
  1269.0
  1269.0
  1122.8
  1010.3
  1245.5
  1042.1
  1245.3
  1006.8
   858.9
  1006.4
   611.7
   685.2
   481.1
   432.8
   608.2
   546.6
   469.8
   358.1
   417.2
   422.1
   553.1
   628.4
   630.2
   596.2
   904.7
   753.6
   902.6
   802.4
   595.2
  1042.2
  1129.9
  1122.8
  1122.8
  1122.8
  1122.8
  1269.1
  1269.1
  1269.1
  1269.2
  1269.1
  1269.2
  1269.1
  1269.1
  1269.1
  1269.1
  1236.5
  1269.0
  1269.0
  1269.0
  1122.8
  1269.0
  1269.0
  1269.0
  1122.9
  1122.7
  1122.8
  1269.1
  1131.1
  1269.1
  1122.7
  1190.7
  1269.0
  1269.0
  1269.0
  1122.8
  1269.0
  1269.1
  1269.0
  1269.1
  1269.1
  1122.8
  1122.8
  1122.8
  1122.8
  1269.1
  1163.0
  1269.1
  1122.8
  1085.9
  1269.1
  1156.4
  1269.1
  1269.1
  1056.1
   628.8
   810.9
   569.5
   857.2
   788.7
   454.5
   523.7
   440.7
   462.9
   637.4
   655.4
   498.4
   579.3
   598.1
  1004.1
   914.0
  1033.7
  1123.0
  1145.7
  1237.7
  1269.2
  1269.3
  1269.2
  1269.2
  1269.1
  1269.1
  1269.2
  1269.2
  1269.1
  1269.2
  1269.1
  1269.2
  1269.1
  1269.1
  1269.1
  1269.1
  1269.1
  1269.0
  1269.1
  1269.0
  1122.8
  1122.8
  1122.8
  1122.8
  1124.7
  1122.9
  1269.0
  1140.0
  1269.1
  1122.7
  1122.7
  1122.7
  1122.7
  1122.6
  1122.8
  1269.0
  1122.8
  1122.8
  1198.9
  1269.0
  1269.0
  1198.9
  1269.1
  1269.1
  1122.7
  1216.2
  1163.0
  1163.0
  1163.3
  1269.1
  1269.1
   902.1
  1069.9
  1085.7
   649.8
   714.3
   640.3
   633.4
   469.6
   456.9
   589.2
   407.5
   491.6
   443.4
   607.4
  1044.0
  1155.4
  1146.8
  1123.0
  1269.1
  1269.1
  1269.3
  1126.4
  1269.1
  1122.8
  1269.1
  1138.5
  1269.2
  1269.1
  1122.9
  1269.1
  1122.9
  1122.9
  1193.6
  1269.0
  1182.4
  1122.8
  1269.1
  1122.8
  1122.8
  1269.1
  1269.0
  1269.1
  1269.1
  1191.3
  1122.9
  1140.0
  1122.6
  1122.6
  1122.8
  1122.8
  1122.6
  1122.9
  1269.0
  1269.0
  1122.9
  1198.9
  1122.7
  1198.9
  1122.7
  1122.7
  1122.7
  1269.2
  1269.1
  1269.0
  1269.2
  1163.3
  1269.1
  1122.8
  1163.3
  1122.8
  1122.9
  1024.7
  1137.2
   888.8
  1145.4
   888.4
   953.9
   917.6
   743.0
   842.6
   785.8
   626.4
   726.8
   507.6
   467.4
   582.0
   454.7
   300.1
   459.0
   555.9
   578.4
   402.7
   443.5
   570.1
   692.1
   514.7
   593.3
   633.3
   942.4
  1014.5
  1023.3
   865.8
  1269.3
  1269.3
  1123.0
  1269.1
  1269.3
  1269.1
  1269.1
  1269.1
  1122.8
  1237.7
  1269.1
  1269.1
  1130.2
  1269.1
  1269.1
  1269.1
  1269.0
  1269.0
  1269.2
  1182.4
  1269.1
  1269.1
  1269.2
  1236.5
  1269.2
  1122.8
  1122.7
  1122.6
  1122.6
  1122.6
  1122.6
  1122.6
  1122.6
  1122.6
  1269.1
  1122.9
  1269.1
  1122.9
  1122.6
  1268.9
  1122.9
  1268.9
  1268.9
  1268.9
  1122.8
  1163.3
  1122.8
  1269.0
  1122.8
  1243.5
  1183.7
  1269.1
  1183.7
  1216.2
  1184.2
  1229.8
   933.9
   901.5
   827.1
   947.1
   743.5
   732.7
   448.1
   537.1
   420.1
   554.7
   544.7
   457.7
   470.7
   741.6
   596.1
   764.8
   859.2
  1083.1
  1057.5
  1091.2
  1067.1
  1123.0
  1269.1
  1269.2
  1171.3
  1123.0
  1269.1
  1138.5
  1126.4
  1230.9
  1123.0
  1269.1
  1268.9
  1269.2
  1237.7
  1123.1
  1269.1
  1269.1
  1269.1
  1123.1
  1269.0
  1182.4
  1269.1
  1122.8
  1269.1
  1269.2
  1236.5
  1169.6
  1236.5
  1236.5
  1269.2
  1269.0
  1122.9
  1122.7
  1122.7
  1122.7
  1269.1
  1269.1
  1122.9
  1269.1
  1269.1
  1122.9
  1122.9
  1122.9
  1269.1
  1269.0
  1122.6
  1143.2
  1268.9
  1122.6
  1268.9
  1122.9
  1268.9
  1163.2
  1122.6
  1122.8
  1163.2
  1269.1
  1269.1
  1182.9
  1269.1
   998.4
  1178.6
  1068.6
   786.9
   749.8
   509.0
   485.8
   576.4
   412.8
   587.5
   428.0
   456.0
   444.0
   780.7
   764.7
   744.7
  1061.9
  1054.8
   988.4
  1269.0
  1122.8
  1184.8
  1269.0
  1269.2
  1269.1
  1123.0
  1122.8
  1237.7
  1269.0
  1122.8
  1269.3
  1268.9
  1123.1
  1122.9
  1122.8
  1219.2
  1269.1
  1169.6
  1169.6
  1162.9
  1269.2
  1269.2
  1269.1
  1122.9
  1269.0
  1269.1
  1269.0
  1269.1
  1269.1
  1256.9
  1269.0
  1269.1
  1269.0
  1269.0
  1206.4
  1268.8
  1122.6
  1206.4
  1122.6
  1122.6
  1268.9
  1139.6
  1122.9
  1122.8
  1163.2
  1163.2
  1163.2
  1163.2
  1122.8
  1187.7
  1269.0
  1005.7
  1165.5
  1122.8
   802.2
   743.8
   610.6
   632.3
   363.0
   520.2
   436.3
   484.5
   519.3
   649.0
   700.1
   814.1
   636.6
  1122.8
  1029.9
  1269.1
  1122.8
  1269.1
  1122.7
  1268.9
  1269.1
  1269.0
  1269.1
  1122.7
  1269.1
  1269.1
  1162.8
  1122.9
  1162.8
  1162.8
  1269.1
  1269.1
  1269.2
  1122.9
  1269.2
  1122.8
  1269.1
  1122.7
  1269.1
  1269.1
  1122.7
  1269.1
  1122.7
  1269.1
  1122.6
  1122.8
  1206.4
  1206.4
  1143.2
  1268.9
  1143.2
  1122.6
  1139.6
  1269.1
  1256.3
  1122.6
  1269.1
  1256.3
  1122.8
  1122.8
  1102.2
  1194.3
  1203.7
   931.7
   894.8
   853.7
   811.9
   901.0
   479.1
   589.0
   681.0
   659.4
   426.0
   646.5
   618.1
   537.2
   650.4
   540.0
   565.1
   611.1
   835.4
   840.9
  1028.4
  1122.8
  1122.8
  1116.0
  1269.1
  1269.1
  1269.1
  1122.7
  1122.7
  1122.7
  1269.1
  1122.9
  1122.9
  1269.1
  1269.0
  1269.1
  1269.1
  1269.1
  1123.0
  1123.0
  1123.0
  1269.1
  1269.1
  1122.9
  1122.9
  1122.9
  1122.9
  1122.9
  1122.8
  1122.7
  1122.7
  1122.7
  1122.7
  1122.6
  1269.1
  1269.0
  1269.2
  1122.6
  1122.6
  1122.6
  1122.6
  1268.9
  1139.6
  1122.6
  1122.6
  1122.6
  1122.7
  1256.3
  1256.3
  1239.8
  1224.9
  1068.8
  1218.8
  1019.6
  1035.4
   811.8
   858.0
   747.3
   819.2
   439.6
   433.3
   502.4
   372.9
   534.3
   491.8
   430.0
   554.0
   468.9
   528.3
   555.3
   472.1
   561.2
   663.0
   721.0
   751.9
   967.1
   957.8
  1182.6
  1036.4
  1000.3
  1162.6
  1208.3
  1269.1
  1269.0
  1036.2
  1122.7
  1269.0
  1269.1
  1269.2
  1122.7
  1269.1
  1122.7
  1122.8
  1269.1
  1122.7
  1269.1
  1269.1
  1122.8
  1269.1
  1269.1
  1269.1
  1269.1
  1269.1
  1269.1
  1123.0
  1269.3
  1269.1
  1269.2
  1269.1
  1123.0
  1256.3
  1269.0
  1269.0
  1269.0
  1122.8
  1269.0
  1269.0
  1269.2
  1269.1
  1269.2
  1269.1
  1122.6
  1122.6
  1122.6
  1122.7
  1269.1
  1269.1
  1268.9
  1269.1
  1268.9
  1268.9
  1268.9
  1269.0
  1269.1
  1122.7
  1122.8
  1122.7
  1122.7
  1110.8
  1211.5
  1122.8
   725.5
   725.6
   649.6
   690.3
   507.8
   573.8
   572.4
   590.8
   552.6
   503.4
   446.8
   723.4
   678.2
  1052.5
   870.3
  1052.3
   998.4
  1269.1
  1122.7
  1122.7
  1122.7
  1122.7
  1122.7
  1122.7
  1122.8
  1122.7
  1122.8
  1122.8
  1269.1
  1122.8
  1122.8
  1269.1
  1269.1
  1269.1
  1269.1
  1269.1
  1247.1
  1269.3
  1122.8
  1123.0
  1123.0
  1269.1
  1122.8
  1122.8
  1122.8
  1269.0
  1269.0
  1269.0
  1122.9
  1269.1
  1269.1
  1122.8
  1269.1
  1122.8
  1269.1
  1269.1
  1269.1
  1269.1
  1256.1
  1269.1
  1269.1
  1122.8
  1122.8
  1122.8
  1069.5
   996.7
  1064.2
   565.6
   426.1
   624.5
   428.6
   535.2
   496.7
   314.2
   487.2
   436.9
   406.1
   543.9
   602.0
   678.1
   727.6
   589.0
  1063.3
  1011.6
  1023.1
  1071.2
  1122.8
  1122.8
  1122.8
  1179.6
  1269.2
  1122.9
  1269.1
  1269.1
  1269.1
  1122.9
  1122.7
  1122.8
  1122.7
  1269.0
  1122.7
  1122.8
  1123.0
  1269.1
  1268.9
  1122.8
  1123.0
  1122.8
  1122.9
  1269.1
  1269.1
  1269.1
  1122.9
  1269.2
  1269.2
  1269.1
  1269.2
  1269.2
  1269.2
  1263.6
  1269.1
  1269.1
  1269.1
  1269.1
  1269.2
  1269.1
  1269.2
  1269.1
  1269.1
  1269.1
  1269.1
  1269.1
  1269.1
  1198.4
  1269.1
  1269.1
  1122.8
  1269.1
  1269.1
  1269.1
  1190.6
  1268.1
  1269.1
   957.7
  1094.7
  1112.1
  1124.1
   963.3
   513.1
   610.1
   628.3
   419.3
   578.2
   501.4
   588.0
   582.3
   622.3
   677.6
   749.3
   634.7
   816.5
   857.0
  1001.3
   784.2
  1098.2
  1201.0
  1269.2
  1179.6
  1122.8
  1207.2
  1179.6
  1122.8
  1122.9
  1269.1
  1122.7
  1122.7
  1122.7
  1123.0
  1269.0
  1123.0
  1123.0
  1122.8
  1269.1
  1269.2
  1252.8
  1269.2
  1269.2
  1269.2
  1269.2
  1269.2
  1269.2
  1269.2
  1269.1
  1261.3
  1237.6
  1269.1
  1269.1
  1269.1
  1122.9
  1269.1
  1269.1
  1269.1
  1269.1
  1122.8
  1122.6
  1268.3
  1122.9
  1188.8
  1122.6
  1259.9
  1213.8
  1122.9
  1250.9
   733.4
   768.9
   768.4
   544.1
   711.9
   510.5
   639.7
   722.5
   494.2
   491.2
   544.0
   493.6
   429.4
   374.8
   689.2
   474.1
   408.5
   480.7
   467.2
   561.3
   719.7
   634.1
   714.1
   782.0
  1009.5
   988.6
  1206.3
  1122.8
  1122.8
  1122.8
  1122.7
  1269.1
  1269.0
  1269.1
  1269.1
  1269.0
  1122.7
  1122.8
  1269.0
  1235.3
  1122.7
  1122.7
  1122.7
  1122.7
  1269.3
  1269.3
  1269.3
  1122.8
  1122.8
  1122.8
  1122.8
  1122.8
  1269.2
  1269.2
  1269.2
  1220.9
  1122.7
  1269.2
  1269.1
  1269.1
  1269.2
  1220.9
  1269.1
  1122.8
  1122.8
  1269.1
  1237.6
  1237.6
  1237.6
  1269.2
  1122.9
  1122.9
  1122.8
  1122.6
  1122.8
  1122.9
  1122.9
  1064.9
  1122.9
  1094.8
  1137.0
  1167.1
  1106.7
  1084.7
   945.5
   883.2
   915.2
  1085.9
   847.8
   536.4
   495.8
   396.7
   452.4
   504.7
   452.8
   570.5
   794.1
   659.8
   815.2
  1021.6
   995.8
  1037.8
  1002.4
  1269.1
  1269.2
  1207.9
  1269.1
  1269.1
  1122.7
  1122.7
  1122.7
  1122.7
  1122.7
  1122.8
  1122.8
  1235.3
  1235.3
  1269.3
  1123.0
  1269.1
  1269.1
  1269.2
  1123.0
  1269.1
  1269.2
  1269.1
  1269.1
  1269.2
  1269.2
  1269.2
  1122.7
  1122.7
  1122.8
  1122.8
  1122.8
  1122.8
  1122.8
  1269.1
  1257.3
  1122.9
  1122.9
  1122.9
  1122.8
  1122.8
  1122.8
  1122.8
  1269.2
  1269.2
  1269.2
  1269.2
  1250.8
  1269.2
  1269.2
  1269.1
  1269.1
  1269.1
  1268.8
  1269.1
  1188.8
  1268.8
  1268.8
  1268.8
  1215.5
  1165.3
  1195.0
  1097.6
  1129.3
  1169.4
  1071.9
   881.9
   654.7
   757.2
   702.7
   497.4
   533.2
   538.0
   447.8
   488.2
   778.1
   554.1
   841.3
   787.2
   658.4
   918.6
  1017.9
  1022.1
  1123.0
  1197.0
  1122.9
  1122.8
  1269.1
  1204.6
  1133.6
  1204.6
  1204.6
  1204.6
  1269.1
  1122.8
  1269.1
  1269.2
  1269.1
  1269.2
  1122.9
  1269.2
  1269.3
  1123.0
  1269.2
  1123.0
  1269.1
  1269.2
  1269.2
  1269.2
  1269.2
  1122.9
  1122.9
  1220.9
  1269.2
  1269.0
  1269.0
  1195.9
  1269.1
  1122.7
  1268.9
  1268.9
  1269.2
  1269.2
  1122.7
  1122.9
  1269.1
  1269.2
  1269.2
  1269.1
  1269.1
  1269.1
  1269.1
  1247.2
  1105.8
  1183.5
  1268.8
  1269.1
  1017.6
  1081.7
  1173.6
  1031.6
   912.9
   800.8
   674.6
   774.1
   437.0
   369.8
   470.1
   471.5
   725.0
   648.4
   532.3
   645.9
   567.0
   718.6
   618.3
   791.0
   923.7
   830.5
   880.6
   759.1
  1123.0
  1155.0
  1122.9
  1122.9
  1122.9
  1122.9
  1122.8
  1133.6
  1122.8
  1269.1
  1122.8
  1122.8
  1263.3
  1269.1
  1269.2
  1269.3
  1269.3
  1269.3
  1269.3
  1269.0
  1269.1
  1171.4
  1269.1
  1269.2
  1269.2
  1269.2
  1269.1
  1220.9
  1269.1
  1269.0
  1269.0
  1122.8
  1269.1
  1269.0
  1122.8
  1122.7
  1122.7
  1122.8
  1268.9
  1269.0
  1122.7
  1122.7
  1122.8
  1269.1
  1269.2
  1269.2
  1269.2
  1122.9
  1122.9
  1122.8
  1269.1
  1269.1
  1122.8
  1094.1
   923.6
  1062.7
   988.8
  1096.2
   781.6
   800.8
   667.7
   812.9
   667.1
   560.0
   522.0
   545.9
   488.2
   548.8
   291.3
   415.9
   486.6
   398.4
   495.3
   526.7
   447.0
   433.2
   645.2
  1160.4
  1123.0
  1123.0
  1123.0
  1123.0
  1269.1
  1269.1
  1122.8
  1269.1
  1224.9
  1122.8
  1269.2
  1269.1
  1233.6
  1263.3
  1269.3
  1269.3
  1269.2
  1269.2
  1269.2
  1269.2
  1269.2
  1269.1
  1269.2
  1269.1
  1122.9
  1122.9
  1244.6
  1269.2
  1269.1
  1269.2
  1269.0
  1269.2
  1269.1
  1269.1
  1269.1
  1122.8
  1269.1
  1122.8
  1122.9
  1122.8
  1122.8
  1122.8
  1266.3
  1269.1
  1217.6
  1269.2
  1266.3
  1269.2
  1217.6
  1269.1
  1269.2
  1122.8
  1269.2
  1246.3
  1122.8
  1199.0
  1122.8
   669.5
   754.9
   579.9
   493.5
   586.5
   555.4
   649.5
   404.0
   540.4
   491.4
   491.4
   453.4
   748.4
   895.1
   863.7
   867.3
   641.4
   719.4
   998.3
   958.1
   938.2
  1261.1
  1123.0
  1262.2
  1269.2
  1269.1
  1123.0
  1269.1
  1122.8
  1269.1
  1122.8
  1263.3
  1123.0
  1269.1
  1269.3
  1269.3
  1269.3
  1263.3
  1123.0
  1123.0
  1123.0
  1123.0
  1269.2
  1269.2
  1269.2
  1269.2
  1269.2
  1122.9
  1269.1
  1269.1
  1269.1
  1122.8
  1269.1
  1269.2
  1122.9
  1269.1
  1231.7
  1269.0
  1122.8
  1122.9
  1122.9
  1122.9