# vtk DataFile Version 3.0
divides
ASCII
DATASET UNSTRUCTURED_GRID
POINTS       9332 float
        1767.992        1398.668         370.667
        5683.240        1070.328         367.647
        4503.737        1271.962         358.820
        7848.047        1253.682         414.153
        8181.501        1241.611         352.861
       11194.473        1420.374         370.773
       10796.085         510.912         250.030
       13878.037        1155.447         385.980
       11611.377        1463.594         411.353
       14484.379        1159.218         341.949
       17199.758        1881.408         435.723
       18369.778         990.333         352.848
       20729.538        1622.806         436.491
       21401.534         638.215         301.339
       20891.680        1665.564         394.328
       25029.250         908.034         366.132
       23774.226        1506.714         381.164
       26307.797         906.679         355.974
       27448.072        1294.480         361.120
       29911.981        1417.711         406.403
       31010.325         734.663         313.890
       34337.985        1409.382         389.387
       33471.088        1125.891         339.578
       33116.689         465.557         257.623
       36790.139        1184.374         421.818
       34694.341        1406.654         380.279
       38840.019         510.391         258.703
       38268.087        1192.264         348.279
       37308.150        1187.867         392.054
       42674.112        1102.871         385.596
       40758.769         937.536         355.865
       43329.448        1105.545         337.739
       45889.401         897.663         326.730
       47665.104        1200.268         404.874
       50444.920         801.565         345.251
       48515.785        1189.883         393.838
       49894.950        1440.398         380.222
       51868.693         799.753         353.801
       52905.953        1056.232         331.756
       55460.765        1147.419         390.009
       55864.004        1133.745         342.974
       59089.275         929.552         313.408
       61928.692        1223.562         402.549
       60494.235        1407.767         380.219
       63507.003        1324.503         408.752
       64348.008         515.791         238.868
       63827.322        1327.448         370.025
       67271.679        1254.438         360.947
       66781.704         544.579         263.618
       67712.260        1285.462         406.517
       70383.381        1743.402         411.991
       69908.713         469.659         260.923
       72134.992         900.809         310.097
       74669.092        1179.823         398.141
       72701.540         941.288         366.442
       75644.085         490.082         253.895
       75106.907        1156.490         348.387
       76245.464        1565.390         405.300
       78350.907        1408.626         442.033
       78643.372        1414.560         382.790
       79471.488         698.248         613.646
         881.074        1714.278         509.680
        1615.892        3103.251         549.265
         744.044        2642.592         555.410
        3333.176        1676.834         571.445
        4765.464        2350.863         538.920
        3369.397        3081.758         636.113
        4910.470        1607.360         427.809
        7715.477        2807.251         569.073
        9082.246        1908.372         521.218
        7469.641        2169.748         528.091
        7663.035        1629.194         438.262
        9131.678        2978.486         597.434
        8845.029        1394.889         465.829
       12401.236        1936.365         497.010
       12576.286        2328.681         518.845
       10606.067        2153.643         390.829
       16971.368        1914.281         515.314
       17264.610        1916.022         433.726
       16923.403        2025.771         540.643
       17301.059        2280.908         559.865
       20660.386        1796.580         433.234
       20818.635        2347.413         552.841
       21368.866        2246.660         589.568
       21197.748        1718.387         460.679
       20580.217        2070.939         501.484
       24228.387        2077.789         489.994
       23868.381        3082.690         614.072
       22811.454        2373.011         592.647
       23258.951        1676.167         456.861
       24172.702        1730.189         441.201
       27309.980        2544.651         549.101
       29107.069        2320.299         624.604
       29126.560        1609.771         614.615
       27042.029        1579.362         419.268
       30447.597        1722.319         463.318
       30538.087        1205.265         550.574
       30207.942        2199.147         542.193
       32069.760        1996.926         397.049
       36087.075        1572.389         589.680
       37396.749        1529.282         396.073
       37010.480        1990.265         497.256
       38979.407        1758.688         384.101
       38073.998        4882.965         572.779
       39160.942        2634.252         448.716
       41842.848        1760.241         442.419
       44596.427        1638.545         402.630
       42876.834        3096.466         418.997
       48512.700        2899.014         619.908
       50308.403        2148.734         403.656
       49250.525        1752.281         500.980
       54594.031        1534.705         532.886
       52306.263        2047.311         437.126
       52332.949        1505.875         384.594
       56781.997        2800.807         568.809
       56698.275        1562.295         488.964
       54151.110        2428.901         591.847
       60306.257        1525.691         403.523
       58040.239        3384.428         466.875
       61474.772        2508.613         695.519
       60283.742        1787.924         468.221
       60982.724        1550.768         536.420
       62569.088        2753.546         624.884
       63183.242        1656.144         473.487
       63896.854        2059.321         403.159
       67438.368        3432.575         554.216
       68109.674        1930.645         454.128
       68032.071        1465.433         448.542
       70031.166        2313.545         546.302
       70731.519        1830.367         482.692
       70830.626        2154.438         538.431
       70190.534        1961.727         419.145
       73968.061        1554.915         502.699
       73831.150        3709.208         614.907
       73714.628        2219.383         544.549
       76994.122        1675.097         651.808
       79210.320        1674.116         461.136
       78679.962        2403.741         524.550
         663.626        3787.597         507.226
        3612.352        3538.559         751.572
        3371.077        3221.429         609.701
        3193.925        3269.661         609.443
        5706.465        4290.780         551.008
        5485.844        3286.277         345.990
        9065.614        5373.201         718.364
       10705.741        4077.142         676.932
       10022.720        3314.295         554.443
        8857.550        3726.727         591.414
       10619.831        2589.739         417.653
       12099.093        2840.235         543.587
       16667.409        3308.231         520.087
       11873.378        4196.024         570.374
       17691.154        4073.671         438.588
       16042.999        3866.842         587.159
       17911.414        3072.741         432.256
       22394.360        4204.334         641.086
       21881.365        3526.945         548.948
       23468.865        3308.019         651.203
       21658.711        3331.538         517.021
       26853.589        3055.275         460.017
       28534.763        4304.805         707.956
       28441.622        3021.378         665.473
       27210.776        3684.761         550.460
       30783.717        3269.996         486.145
       30157.996        3866.982         584.464
       28798.307        4354.371         678.243
       33865.901        4793.764         471.344
       34027.676        2518.854         349.460
       32033.913        2291.657         408.788
       35633.138        2705.566         515.057
       35492.973        2336.298         541.182
       41335.359        4372.166         447.500
       41476.770        3758.293         434.080
       38127.126        5010.976         535.552
       43091.826        4354.515         439.839
       45235.898        2941.251         475.936
       44571.896        2284.106         440.838
       46454.503        4461.418         543.583
       47886.966        3121.265         546.582
       44953.059        4864.484         594.669
       47196.892        2213.882         494.753
       47954.472        3247.334         525.429
       48368.041        3150.909         531.064
       48159.777        3754.769         671.432
       48465.364        4274.201         541.301
       52649.123        2974.872         440.001
       55485.949        3349.719         684.154
       52638.395        3512.571         529.770
       56220.629        3504.225         572.955
       54904.663        4199.546         822.760
       56109.124        3907.291         671.846
       61795.155        3163.124         521.393
       62206.503        3425.768         503.631
       62404.588        3119.956         503.318
       61729.130        3416.273         576.921
       65604.467        4226.619         521.969
       65951.222        3146.946         510.946
       67004.923        3723.060         743.844
       67370.674        3433.970         574.423
       67440.936        3450.708         547.431
       67480.859        3935.175         733.340
       67559.765        3577.018         613.669
[...]
POINT_DATA       9332
SCALARS height float 1
LOOKUP_TABLE default
   370.7
   367.6
   358.8
   414.2
   352.9
   370.8
   250.0
   386.0
   411.4
   341.9
   435.7
   352.8
   436.5
   301.3
   394.3
   366.1
   381.2
   356.0
   361.1
   406.4
   313.9
   389.4
   339.6
   257.6
   421.8
   380.3
   258.7
   348.3
   392.1
   385.6
   355.9
   337.7
   326.7
   404.9
   345.3
   393.8
   380.2
   353.8
   331.8
   390.0
   343.0
   313.4
   402.5
   380.2
   408.8
   238.9
   370.0
   360.9
   263.6
   406.5
   412.0
   260.9
   310.1
   398.1
   366.4
   253.9
   348.4
   405.3
   442.0
   382.8
   613.6
   509.7
   549.3
   555.4
   571.4
   538.9
   636.1
   427.8
   569.1
   521.2
   528.1
   438.3
   597.4
   465.8
   497.0
   518.8
   390.8
   515.3
   433.7
   540.6
   559.9
   433.2
   552.8
   589.6
   460.7
   501.5
   490.0
   614.1
   592.6
   456.9
   441.2
   549.1
   624.6
   614.6
   419.3
   463.3
   550.6
   542.2
   397.0
   589.7
   396.1
   497.3
   384.1
   572.8
   448.7
   442.4
   402.6
   419.0
   619.9
   403.7
   501.0
   532.9
   437.1
   384.6
   568.8
   489.0
   591.8
   403.5
   466.9
   695.5
   468.2
   536.4
   624.9
   473.5
   403.2
   554.2
   454.1
   448.5
   546.3
   482.7
   538.4
   419.1
   502.7
   614.9
   544.5
   651.8
   461.1
   524.5
   507.2
   751.6
   609.7
   609.4
   551.0
   346.0
   718.4
   676.9
   554.4
   591.4
   417.7
   543.6
   520.1
   570.4
   438.6
   587.2
   432.3
   641.1
   548.9
   651.2
   517.0
   460.0
   708.0
   665.5
   550.5
   486.1
   584.5
   678.2
   471.3
   349.5
   408.8
   515.1
   541.2
   447.5
   434.1
   535.6
   439.8
   475.9
   440.8
   543.6
   546.6
   594.7
   494.8
   525.4
   531.1
   671.4
   541.3
   440.0
   684.2
   529.8
   573.0
   822.8
   671.8
   521.4
   503.6
   503.3
   576.9
   522.0
   510.9
   743.8
   574.4
   547.4
   733.3
   613.7
   586.9
   549.3
   731.9
   673.2
   630.4
   650.3
   682.3
   580.9
   423.1
   436.8
   630.0
   432.7
   220.4
   574.0
   469.8
   641.5
   570.7
   746.1
   748.6
   658.2
   587.2
   584.0
   766.4
   690.0
   426.1
   549.9
   465.1
   525.8
   566.2
   672.6
   699.4
   631.1
   611.1
   551.4
   669.8
   630.7
   637.7
   874.3
   472.9
   466.3
   715.6
   569.7
   594.6
   602.5
   618.5
   663.1
   622.6
   568.8
   749.4
   734.8
   533.0
   657.7
   540.2
   437.0
   450.9
   675.6
   550.9
   770.0
   570.4
   559.7
   659.4
   583.4
   691.6
   473.9
   572.0
   863.2
   675.4
   734.2
   728.6
   571.4
   659.1
   779.7
   441.4
   522.8
   520.6
   527.8
   693.2
   660.1
   749.9
   656.3
   622.6
   561.1
   724.0
   823.1
   824.7
   868.1
   492.5
   539.5
   456.9
   632.7
   815.9
   813.7
   641.7
   718.2
   614.3
   630.4
   720.4
   547.3
   639.2
   669.9
   587.5
   562.9
   578.2
   428.7
   500.4
   550.1
   709.7
   665.6
   632.1
   769.9
   596.8
   584.2
   629.0
   823.0
   718.1
   671.2
   713.8
   672.4
   781.6
   820.5
   303.7
   405.6
   612.9
   528.8
   660.0
   513.8
   689.6
   653.2
   694.1
   555.9
   626.0
   728.4
   823.8
   567.6
   558.3
   603.6
   873.6
   838.6
   706.9
   699.2
   645.8
   667.5
   447.4
   518.7
   538.8
   913.4
   788.4
   718.9
   462.0
   433.5
   525.7
   525.0
   618.9
   625.2
   649.0
   787.0
   715.3
   914.7
   726.0
   698.2
   886.4
   659.7
   828.8
   755.8
   838.1
   786.9
   602.1
   827.4
   755.1
   836.4
   713.3
   775.6
   817.5
   794.2
   431.4
   594.9
   571.7
   437.6
   484.4
   440.9
   700.5
   575.6
   550.6
   807.4
   644.5
   806.1
   848.4
   821.7
   750.2
   660.9
   804.4
   757.1
   803.9
   645.9
   842.8
   866.8
   721.2
   710.8
   595.8
   600.7
   751.5
   760.1
   629.6
   602.1
   742.2
   554.1
   637.5
   759.7
   524.9
   757.5
   778.8
   758.5
   841.2
   823.0
   531.4
   641.5
   422.2
   589.7
   639.9
   498.4
   776.0
   631.9
   607.4
   563.9
   613.6
   573.8
   801.3
   824.4
   519.8
   566.0
   817.2
   714.5
   894.1
   911.5
   635.8
   706.1
   534.7
   674.8
   592.7
   799.2
   841.5
   688.4
   590.4
   735.2
   525.0
   512.7
   772.6
   725.2
   819.6
   570.5
   609.9
   633.2
  1049.7
   766.6
   927.3
   943.2
   945.1
  1032.3
   880.2
   931.8
  1015.0
  1046.8
   898.7
   843.4
   829.8
   698.0
   784.2
   745.9
   827.8
   611.4
   510.7
   569.8
   532.4
   439.1
   392.0
   385.9
   503.2
   494.8
   436.4
   462.0
   615.4
   557.2
   824.7
   711.2
   872.5
   776.1
   752.0
   908.9
   709.6
   854.5
   692.3
   592.5
   739.1
   658.6
   556.8
   586.0
   861.8
  1027.6
  1007.0
   809.5
   964.3
   896.3
   668.6
   748.0
   786.5
  1034.7
  1009.1
   906.1
   688.0
   818.4
   632.8
   639.5
   807.9
   872.8
   682.7
   667.0
   824.6
   828.2
   627.1
   813.4
   612.0
   791.7
   797.2
   994.0
  1056.6
   987.8
   520.3
   870.8
   724.0
   830.9
   701.5
   894.7
  1011.4
  1111.5
   596.8
   413.7
   812.0
   766.3
   966.1
   972.0
   691.1
   728.4
   843.6
   795.2
   970.1
   977.1
   963.4
   912.9
  1022.3
  1102.3
   937.7
   868.3
   912.9
  1070.8
   751.8
   695.8
   733.0
   684.6
   544.0
   556.8
   600.5
   528.5
   660.7
   567.7
   757.2
   738.4
   652.8
   734.4
   753.5
   663.2
   753.5
   752.2
  1063.2
  1108.2
   840.9
   896.4
   856.3
   926.6
   748.2
   995.2
   941.1
  1004.0
   712.6
   730.7
   584.4
   743.1
   872.7
   852.3
   683.1
   626.1
   915.4
   593.7
   509.4
   836.9
   875.4
   979.7
  1006.3
   877.9
   955.6
   719.5
   941.2
   721.7
   699.0
   635.4
   853.1
   835.0
   528.5
   649.5
   897.2
   684.0
   592.9
   863.7
   955.2
   964.1
   903.9
  1118.1
   905.6
  1114.8
   945.1
   505.3
   645.3
   892.9
  1001.1
  1145.1
  1024.8
   833.7
   847.0
   807.0
   573.4
   658.2
   498.3
   680.7
   737.3
   877.3
   648.3
   867.1
   901.8
  1096.0
  1259.7
   988.5
  1013.2
   724.8
   859.2
   648.6
   822.0
   807.9
   719.6
   629.2
   738.5
   716.7
   615.0
   501.1
   437.1
   554.1
   280.6
   541.5
   705.1
   829.1
   887.8
   762.6
   823.7
   733.2
   766.1
   861.3
   748.7
   879.5
   859.9
   887.6
   838.2
   961.3
   804.6
  1114.6
  1219.0
   951.6
   999.9
   965.0
  1000.3
   817.0
   816.4
   699.4
   763.1
   893.7
  1031.0
  1081.4
  1091.5
  1197.2
   675.6
   562.1
   595.1
   547.2
   581.7
   562.3
   602.7
   776.4
   819.3
   751.7
   959.8
   809.8
   923.8
   745.5
  1050.8
   771.5
  1010.1
   771.2
   853.1
   659.2
   885.3
   827.0
   723.2
   882.8
  1101.8
  1010.8
   596.7
   540.6
   867.3
   699.7
   872.5
  1148.5
  1128.3
  1133.4
  1029.4
  1078.0
  1164.7
   751.1
   661.5
   476.6
   548.5
   544.0
   510.1
   401.9
   364.9
   360.4
   490.2
   482.1
   575.2
   511.8
   428.3
   405.8
   614.1
   481.3
   461.3
   683.9
   755.7
   524.7
   583.7
   632.6
   803.7
   742.6
   637.3
   904.0
  1008.6
  1026.9
  1160.9
  1307.4
  1276.2
  1258.1
   767.0
   880.0
  1153.3
  1135.2
  1404.5
  1199.2
   734.5
   616.9
   733.3
   952.9
   640.3
   967.3
   856.1
   817.3
   639.3
  1028.6
  1279.6
  1104.6
  1223.1
  1000.3
  1101.3
   872.0
   848.0
  1047.6
   883.2
  1076.7
  1100.2
   912.3
  1131.7
  1294.9
  1015.7
  1134.5
  1282.1
  1150.2
   773.0
   943.1
   971.7
   957.7
  1076.9
   966.8
   833.2
  1033.3
   723.2
   757.6
   638.5
  1118.7
  1278.9
  1227.9
   980.3
  1063.4
  1089.2
  1104.6
   973.5
  1003.6
   977.0
   942.6
   902.2
   636.3
   906.9
   885.6
   797.4
   632.7
   690.7
   627.6
   626.6
   719.9
   570.4
   666.9
   626.2
   452.3
   412.2
   444.9
   476.9
   533.6
   692.2
  1154.9
  1256.5
  1184.5
  1233.4
  1098.8
  1280.0
  1194.7
  1107.5
  1204.0
  1100.4
  1377.2
  1375.9
  1032.3
  1117.7
  1095.6
   982.5
   850.9
  1043.2
  1123.3
   850.0
  1022.8
   972.2
   696.8
   863.4
   728.4
   647.0
   969.2
  1016.9
   898.9
  1248.7
  1045.2
  1248.7
  1276.9
  1049.0
  1291.9
  1157.2
  1074.7
  1147.3
  1467.1
  1248.1
  1448.5
   999.7
  1049.8
  1143.4
   953.1
  1154.2
   881.8
   893.6
   787.5
  1055.2
  1096.1
   724.5
   715.0
   738.0
   955.9
   868.9
  1075.0
  1295.6
  1275.3
   788.8
  1044.4
  1068.4
  1108.3
   856.5
  1002.6
   890.7
   928.8
   783.9
   739.7
   771.6
   718.7
   557.8
   632.7
   508.7
   437.6
   659.5
   540.2
   464.4
   371.2
   410.6
   432.9
   589.6
   671.4
   640.1
   557.8
   769.4
   551.0
   700.3
   602.1
   639.6
   539.1
   867.9
   685.7
   773.9
   838.2
   709.8
   900.2
   887.5
   818.9
   901.2
   925.2
   954.4
  1132.9
  1066.1
  1188.8
  1280.2
  1319.5
  1127.5
  1379.4
  1514.7
  1498.2
  1495.8
  1368.3
  1616.2
  1489.6
  1672.8
  1502.2
  1399.5
  1387.6
   952.1
  1058.7
  1162.3
  1319.0
  1236.9
  1156.0
   885.8
   981.1
  1192.2
  1327.6
  1306.3
  1272.1
  1336.6
  1353.1
  1486.7
  1498.6
  1398.8
  1380.0
  1604.4
  1453.8
  1626.4
  1470.7
  1267.3
  1195.6
  1153.9
  1150.5
  1177.2
  1110.5
  1057.0
   866.6
   852.3
  1282.8
  1055.0
  1269.3
  1073.6
   758.5
   673.6
   616.1
   629.9
   589.1
   811.3
   501.4
   708.1
   491.1
   671.1
   534.6
   445.8
   541.0
   464.4
   623.0
   526.4
   521.3
   433.2
   471.1
   554.2
   668.2
   477.6
   650.1
   843.3
   590.3
   889.6
   806.9
   639.5
   830.5
   615.1
   778.1
  1020.0
   839.4
  1361.6
  1081.1
  1367.2
  1771.1
  1615.9
  1515.7
  1347.6
  1402.2
  1594.4
  1587.8
  1575.7
  1390.9
  1135.6
  1393.9
  1092.9
  1314.7
  1314.8
  1189.4
  1544.4
  1523.8
  1701.1
  1693.6
  1705.5
  1699.2
  1488.1
  1703.0
  1819.4
  1822.6
  1792.5
  1719.2
  1790.4
  1565.1
  1784.2
  1788.7
  1558.3
  1436.6
  1503.2
  1425.4
  1502.3
  1470.6
  1466.2
  1288.7
  1313.2
  1134.1
  1123.7
   955.5
  1084.7
  1329.6
  1328.7
  1226.8
   955.1
   891.8
   909.5
   762.3
   743.6
   833.6
  1065.5
   613.9
   424.8
   520.7
   729.7
   641.9
   662.1
   447.3
   458.0
   621.8
   400.6
   467.5
   424.8
   489.0
   568.3
   587.1
   593.8
   703.7
   701.4
   611.8
  1077.7
  1504.0
  1775.6
  1770.5
  1625.9
  1767.4
  1627.4
  1774.2
  1779.5
  1768.0
  1689.8
  1706.8
  1918.9
  1846.7
  1662.4
  1855.3
  1814.8
  1852.8
  1497.5
  1482.9
  1398.7
  1623.6
  1678.7
  1678.0
  1425.2
  1822.9
  1867.1
  1822.6
  1822.9
  1822.6
  1822.6
  1910.8
  1732.8
  1822.6
  1732.7
  1722.8
  1727.4
  1728.5
  1768.1
  1786.1
  1785.9
  1703.8
  1779.3
  1705.4
  1713.1
  1504.7
  1450.1
  1224.6
  1478.4
  1402.9
  1398.5
  1360.1
  1580.3
  1131.6
   957.5
  1138.7
   600.1
   696.3
   758.9
   628.8
   673.0
   869.6
   695.7
   718.0
   709.0
   676.9
   581.8
   677.0
   618.8
   694.1
   527.8
   483.0
   606.7
   472.3
   306.8
   481.6
   575.8
   632.6
   396.2
   468.1
   544.0
   573.9
   440.7
   603.3
   594.2
   549.6
   719.7
   653.7
   704.7
   683.7
   673.1
   713.0
   940.4
   945.4
   985.8
   848.3
   881.6
   871.0
  1404.9
  1416.6
  1231.2
  1773.1
  1801.1
  1805.0
  1926.8
  1969.0
  1813.2
  1757.8
  1821.1
  1663.4
  1623.7
  1745.8
  1761.7
  1746.2
  1831.0
  1838.0
  1743.1
  1889.7
  1969.2
  1736.3
  1822.8
  1822.7
  1822.6
  1822.6
  1822.7
  1822.6
  1822.6
  1822.6
  1822.6
  1969.1
  1822.9
  1930.9
  1822.9
  1899.9
  1768.1
  1822.9
  1762.6
  1765.5
  1762.4
  1574.3
  1385.4
  1404.4
  1570.3
   997.2
   970.3
   987.6
   794.5
  1025.1
  1018.6
  1013.3
   769.4
   973.7
  1053.5
   934.7
   870.6
   946.5
   829.1
   840.3
   849.2
   713.2
   869.6
   751.8
   674.2
   464.0
   543.8
   429.6
   560.8
   538.2
   466.4
   471.3
   784.3
   825.3
   924.1
  1139.0
   949.0
   942.6
   898.0
   967.6
   950.5
   889.0
   951.0
  1052.2
  1038.8
  1201.5
  1102.8
  1004.7
  1249.0
  1149.0
  1301.9
  1134.3
  1309.2
  1582.0
  1774.7
  1602.6
  1526.5
  1771.7
  1823.1
  1965.1
  1796.9
  1924.1
  1823.1
  1969.0
  1857.9
  1941.6
  1822.8
  1941.1
  1939.0
  1889.7
  1850.3
  1889.7
  1889.7
  1969.2
  1969.0
  1822.9
  1822.7
  1822.7
  1822.7
  1969.1
  1969.1
  1822.9
  1969.1
  1969.1
  1822.9
  1822.9
  1822.9
  1969.1
  1969.0
  1822.9
  1775.5
  1882.6
  1781.8
  1772.8
  1553.7
  1585.0
  1629.1
  1625.8
  1579.2
  1323.6
  1509.2
  1356.5
   904.6
  1155.9
  1074.5
  1073.8
   884.5
  1073.2
   753.6
   835.8
   661.7
   825.6
   570.2
   644.0
   692.8
   494.4
   484.5
   610.1
   435.8
   607.1
   452.7
   478.5
   451.4
   669.4
   673.1
   653.0
   775.0
   710.9
   710.9
   837.9
   964.8
   941.1
   970.9
   909.1
   946.1
   703.4
   955.1
   900.3
  1151.0
  1022.5
  1383.8
  1374.3
  1118.4
  1768.7
  1524.6
  1745.9
  1823.1
  1763.0
  1936.7
  1822.8
  1879.5
  1923.0
  1850.3
  1850.3
  1846.3
  1969.2
  1969.2
  1969.1
  1822.9
  1969.0
  1969.1
  1969.0
  1969.1
  1969.1
  1956.9
  1969.0
  1969.1
  1969.0
  1969.0
  1872.0
  1902.6
  1900.2
  1872.0
  1767.9
  1734.3
  1898.5
  1624.6
  1363.1
  1335.8
  1535.3
  1609.8
  1301.4
  1085.5
  1005.4
  1066.1
   745.6
   752.2
   605.0
   478.4
   499.7
   554.6
   352.0
   574.7
   447.4
   513.9
   535.5
   616.3
   527.4
   715.8
   509.4
   737.5
   604.0
   751.6
   689.6
   526.8
   617.1
   702.6
   651.1
   713.7
   866.8
   812.5
   998.8
  1119.9
  1271.8
  1258.2
   980.7
  1552.3
  1642.1
  1765.4
  1873.3
  1846.1
  1879.5
  1846.3
  1846.3
  1969.1
  1969.1
  1969.2
  1822.9
  1969.2
  1822.8
  1969.1
  1822.7
  1969.1
  1969.1
  1822.7
  1969.1
  1822.7
  1969.1
  1822.6
  1822.8
  1872.0
  1872.0
  1821.9
  1905.3
  1531.8
  1372.8
  1285.9
  1079.8
  1042.8
   968.0
   856.3
  1032.3
  1075.3
   975.2
   923.3
  1029.8
   815.0
   860.8
   785.1
   707.0
   696.6
   763.6
   673.4
   576.2
   725.6
   637.1
   677.2
   684.3
   545.0
   478.2
   632.2
   724.2
   450.5
   556.1
   704.5
   610.4
   640.6
   482.3
   469.5
   617.0
   530.3
   500.2
   518.2
   674.4
   699.0
   997.9
   892.2
  1628.1
  1434.0
  1458.4
  1718.0
  1936.9
  1969.1
  1969.0
  1967.6
  1969.0
  1969.1
  1823.0
  1823.0
  1823.0
  1969.1
  1969.1
  1822.9
  1822.9
  1822.9
  1822.9
  1822.8
  1822.8
  1822.7
  1822.7
  1822.7
  1822.7
  1822.6
  1969.1
  1969.0
  1852.7
  1837.2
  1822.6
  1656.7
  1830.4
  1727.2
  1370.3
  1209.3
  1247.0
   991.0
  1051.3
   739.9
   964.4
   920.7
   905.3
  1023.8
   784.9
   945.9
   563.8
   877.8
   740.9
   621.0
   695.0
   459.7
   687.7
   697.8
   592.0
   842.1
   467.7
   434.2
   529.9
   393.2
   575.5
   495.5
   409.9
   564.1
   421.9
   411.8
   440.9
   375.6
   473.3
   541.8
   662.5
   541.0
   613.4
   653.8
   683.9
   582.6
   622.5
   641.7
   805.1
   668.0
   785.2
   617.6
  1009.1
   857.1
   899.5
   780.0
   776.5
   934.0
   842.2
   942.3
   880.4
  1227.6
  1233.0
  1267.4
  1688.3
  1712.8
  1723.6
  1724.1
  1967.6
  1967.5
  1967.6
  1969.1
  1969.1
  1823.0
  1969.3
  1969.1
  1969.2
  1969.1
  1823.0
  1956.3
  1969.0
  1969.0
  1969.0
  1822.8
  1969.0
  1969.0
  1969.2
  1969.1
  1969.2
  1969.1
  1822.6
  1822.6
  1822.6
  1822.6
  1850.4
  1957.1
  1822.9
  1809.3
  1770.7
  1597.6
  1577.9
  1390.5
   789.4
   767.4
   720.5
   611.0
   611.1
   596.6
   549.7
   600.1
   484.7
   472.6
   665.4
   687.8
   471.6
   623.5
   492.4
   660.6
   585.6
   475.8
   353.4
   500.7
   589.4
   707.3
   647.5
   654.5
  1031.0
   953.5
   937.6
  1154.4
   974.1
  1013.6
  1272.9
  1249.5
  1160.5
  1510.7
  1535.0
  1683.4
  1900.2
  1893.5
  1958.2
  1969.1
  1969.1
  1969.1
  1969.1
  1969.1
  1947.1
  1969.3
  1822.9
  1823.0
  1823.0
  1969.1
  1822.8
  1822.8
  1822.8
  1929.3
  1969.0
  1969.0
  1822.9
  1957.7
  1969.1
  1822.8
  1957.7
  1822.9
  1805.0
  1650.6
  1532.8
  1657.8
  1772.1
  1003.8
   972.4
  1025.1
   877.4
   952.3
  1016.2
   813.4
   782.4
   808.7
   851.0
   807.0
   841.3
   810.9
   646.5
   431.5
   413.0
   657.4
   456.3
   553.7
   448.3
   319.8
   510.0
   452.9
   395.0
   573.4
   583.5
   672.9
   638.5
   666.8
   468.9
   753.2
   719.6
   724.7
   601.1
   651.1
   717.3
   728.4
   744.0
   794.3
   824.0
  1163.4
  1801.2
  1656.2
  1794.2
  1536.9
  1544.3
  1822.7
  1958.2
  1957.5
  1822.7
  1968.9
  1822.7
  1822.8
  1823.0
  1969.1
  1968.9
  1822.8
  1823.0
  1822.8
  1822.8
  1969.1
  1969.1
  1969.1
  1822.9
  1969.2
  1969.2
  1929.3
  1929.3
  1969.2
  1969.2
  1963.7
  1957.7
  1957.7
  1957.7
  1969.1
  1815.3
  1969.1
  1969.1
  1722.6
  1807.2
  1811.1
  1245.5
  1227.1
  1519.2
  1372.9
  1300.2
  1312.9
   963.7
  1168.7
   940.1
  1152.4
   772.3
   913.5
   866.0
   927.7
   606.8
   625.5
   871.9
   684.7
   723.9
   419.8
   469.9
   516.4
   415.4
   562.3
   479.0
   581.5
   560.4
   581.5
   625.4
   751.4
   576.9
   620.6
   756.1
   796.4
   684.2
   765.0
   846.1
   973.7
   793.4
  1021.6
   715.6
   946.2
   894.3
   910.0
  1296.0
  1094.0
  1293.2
  1185.7
  1515.8
  1310.9
  1701.7
  1871.5
  1822.7
  1711.4
  1822.7
  1819.7
  1823.0
  1968.9
  1823.0
  1823.0
  1822.8
  1969.1
  1969.2
  1952.8
  1969.2
  1969.2
  1969.2
  1969.2
  1969.2
  1969.2
  1969.1
  1969.1
  1961.3
  1890.3
  1969.1
  1913.2
  1898.4
  1890.3
  1593.9
  1347.3
  1599.9
  1535.6
  1663.2
  1454.9
  1386.1
  1659.0
   986.5
   923.0
   833.8
   744.1
   708.8
   686.9
   670.9
   568.7
   557.6
   553.4
   689.4
   442.7
   649.1
   681.9
   479.7
   523.5
   596.0
   517.0
   411.5
   476.0
   563.3
   455.0
   528.1
   419.8
   379.5
   448.7
   562.0
   456.2
   502.8
   505.2
   749.3
   657.4
   536.3
   637.2
   703.5
   524.1
   766.2
   675.2
  1299.5
  1066.3
  1663.9
  1699.4
  1711.0
  1913.2
  1693.4
  1750.8
  1822.7
  1822.7
  1822.7
  1822.7
  1969.3
  1969.0
  1969.3
  1822.8
  1822.8
  1822.8
  1822.8
  1822.8
  1969.2
  1969.2
  1969.2
  1880.5
  1822.7
  1969.2
  1969.1
  1969.1
  1969.1
  1880.5
  1969.1
  1822.8
  1822.8
  1969.1
  1890.3
  1890.3
  1890.3
  1749.4
  1895.4
  1897.9
  1784.8
  1667.2
  1717.4
  1778.9
  1212.8
  1343.8
  1263.8
  1455.8
  1389.0
   939.9
   733.4
   910.6
   947.3
   881.8
   672.6
   902.7
   821.0
   757.0
   760.5
   551.8
   580.4
   826.6
   850.5
   857.1
   819.2
   847.0
   576.8
   510.4
   414.7
   473.3
   491.4
   429.0
   350.9
   555.7
   493.2
   536.9
   433.4
   798.9
   740.5
   749.0
  1161.4
  1202.8
   942.7
  1515.9
  1431.2
  1926.1
  1923.0
  1925.7
  1866.1
  1969.0
  1823.0
  1969.2
  1969.1
  1969.2
  1823.0
  1969.1
  1969.2
  1969.1
  1969.1
  1969.2
  1969.2
  1969.2
  1822.7
  1822.7
  1822.8
  1822.8
  1822.8
  1822.8
  1822.8
  1969.0
  1957.3
  1822.9
  1822.9
  1822.9
  1822.8
  1822.8
  1822.8
  1822.8
  1848.4
  1964.2
  1943.1
  1289.0
  1329.8
  1462.4
  1489.3
   995.8
  1217.7
   926.6
  1190.5
  1204.1
  1117.5
   953.3
  1077.5
   831.2
   951.6
   941.1
   703.8
   808.2
   881.2
   649.7
   711.3
   755.9
   509.0
   535.8
   595.5
   439.6
   519.5
   578.1
   696.8
   473.3
   672.2
   556.4
   490.8
   636.8
   552.6
   666.3
   695.8
   640.3
   581.0
   817.3
   790.2
   571.2
   804.2
   571.4
   595.3
   573.9
   672.0
   628.6
   826.8
   900.9
   735.1
   937.2
   752.1
   921.4
  1213.5
  1466.4
  1517.5
  1261.1
  1868.3
  1633.7
  1745.4
  1868.9
  1965.9
  1823.0
  1876.7
  1823.0
  1969.1
  1969.2
  1969.2
  1969.2
  1969.2
  1822.9
  1822.9
  1880.5
  1969.2
  1969.0
  1969.0
  1888.0
  1969.1
  1822.7
  1968.9
  1964.4
  1888.1
  1734.0
  1822.7
  1847.2
  1728.8
  1393.1
  1610.7
  1613.4
   903.7
  1015.4
   776.7
   757.2
   967.4
   761.2
   600.4
   686.4
   875.9
   581.1
   626.2
   556.0
   672.2
   759.6
   712.5
   725.1
   711.0
   435.9
   380.3
   489.7
   487.1
   764.6
   602.4
   608.2
   732.1
   537.7
   662.7
   550.9
   726.4
   736.4
   611.0
   618.6
   592.0
   839.7
   785.8
   885.3
   788.0
   841.2
   642.8
   860.4
   801.9
   755.4
   587.0
   684.5
   769.1
   792.1
  1154.1
  1132.4
  1097.3
  1310.1
  1288.1
  1823.7
  1879.5
  1964.3
  1834.0
  1969.0
  1969.1
  1854.9
  1969.1
  1969.2
  1969.2
  1969.2
  1969.0
  1880.5
  1969.1
  1969.0
  1969.0
  1822.8
  1969.1
  1969.0
  1822.7
  1822.7
  1822.7
  1822.8
  1968.9
  1969.0
  1822.7
  1822.7
  1822.8