# vtk DataFile Version 3.0
divides
ASCII
DATASET UNSTRUCTURED_GRID
POINTS       9503 float
        1768.900        1406.232         371.507
        5681.950        1068.765         367.531
        4502.276        1278.232         359.619
        7848.954        1254.467         414.351
        8181.703        1242.993         353.078
       11194.468        1421.774         370.986
       10795.912         511.131         250.137
       13878.243        1155.668         386.093
       11610.511        1464.661         411.563
       14484.372        1159.126         341.995
       17218.994        1911.572         438.148
       18370.338         991.055         353.030
       20738.676        1632.502         437.520
       21404.121         640.960         301.990
       20892.384        1678.348         395.549
       25029.367         908.137         366.259
       23771.585        1524.339         382.976
       26307.751         906.726         356.081
       27448.955        1299.090         361.746
       29897.267        1398.951         404.609
       31023.162         750.115         316.968
       34334.209        1402.170         388.747
       33471.566        1121.719         339.098
       33117.182         465.081         257.360
       36769.998        1169.373         420.078
       34697.049        1399.121         379.588
       38840.883         511.394         259.211
       38267.637        1196.325         348.870
       37324.491        1170.089         389.942
       42673.929        1102.683         385.663
       40764.993         930.600         354.827
       43329.400        1105.141         337.733
       45889.096         898.199         326.844
       47667.635        1202.668         405.229
       50438.296         795.281         344.096
       48513.466        1192.428         394.211
       49892.227        1427.099         378.874
       51875.903         793.561         352.648
       52906.144        1058.140         332.051
       55462.018        1148.775         390.216
       55863.795        1135.483         343.210
       59089.439         928.177         313.163
       61932.291        1227.463         402.959
       60493.448        1411.392         380.547
       63502.106        1318.644         407.900
       64348.131         515.972         238.952
       63828.256        1320.267         369.022
       67272.022        1260.430         361.542
       66780.809         545.744         264.182
       67708.007        1290.488         406.889
       70383.321        1749.656         412.344
       69908.779         469.596         260.888
       72134.959         900.588         309.914
       74668.763        1179.460         397.936
       72701.848         940.966         366.268
       75643.920         489.900         253.800
       75106.951        1155.937         348.207
       76245.854        1564.289         405.043
       78351.972        1409.593         441.956
       78643.574        1415.736         382.806
       79471.143         698.703         614.763
         884.107        1714.672         513.241
        1619.178        3082.905         551.327
        3535.791        2587.966         603.018
         746.819        2640.514         559.285
        3330.469        1677.119         575.507
        4751.645        2317.668         536.980
        4903.304        1606.654         428.323
        7717.545        2802.358         569.877
        9082.539        1908.483         522.192
        7472.308        2167.706         528.628
        7664.832        1629.058         438.230
        9131.232        2977.795         598.919
        8844.841        1394.948         466.413
       12397.451        1936.501         497.739
       12572.525        2327.732         519.749
       10606.265        2153.585         391.500
       17006.808        1915.071         517.870
       17231.158        1919.256         436.987
       16956.519        2014.121         543.331
       17293.301        2244.416         561.708
       20672.495        1796.898         434.727
       20820.160        2337.104         554.984
       21362.134        2240.299         592.156
       21186.944        1721.445         462.529
       20589.078        2063.493         503.184
       24213.613        2069.322         492.109
       23864.281        3044.108         619.429
       22837.621        2356.510         598.029
       23274.559        1680.025         459.343
       24155.450        1732.642         443.165
       27312.317        2533.497         550.265
       29104.537        2319.164         627.716
       29060.878        1609.506         612.629
       27046.130        1579.572         420.026
       30468.826        1728.363         460.844
       30559.546        1186.721         550.516
       30212.559        2218.139         538.749
       32067.287        1996.929         396.307
       36050.429        1578.092         583.677
       37419.895        1538.196         394.209
       37005.765        2020.731         497.711
       38964.537        1760.183         383.626
       38072.723        4914.609         576.948
       39136.790        2614.290         447.555
       41855.814        1761.122         441.386
       44598.039        1638.232         402.901
       42878.779        3092.053         418.583
       48483.138        2920.595         617.617
       50310.571        2150.798         398.246
       49221.986        1749.161         499.604
       54592.997        1534.707         534.389
       52323.594        2033.702         434.476
       52339.879        1506.238         382.960
       56768.060        2782.496         568.448
       56691.811        1562.073         489.078
       54146.214        2431.538         594.000
       60310.599        1525.304         403.607
       58045.795        3374.385         465.668
       61499.630        2533.341         701.397
       60286.946        1783.205         467.784
       60984.917        1550.939         539.017
       62548.590        2772.047         624.548
       63171.680        1656.136         474.160
       63898.986        2066.965         402.421
       67437.857        3426.383         556.904
       68100.077        1928.753         455.387
       68022.107        1469.602         449.532
       70034.614        2309.677         547.072
       70725.960        1831.795         483.249
       70825.688        2151.862         539.053
       70195.604        1960.626         419.914
       73967.507        1554.882         502.697
       73831.983        3707.803         615.284
       73714.587        2219.401         544.685
       77002.437        1675.328         652.640
       79210.145        1674.132         461.542
       78679.961        2403.782         525.040
         663.434        3787.427         507.027
        5712.175        4301.145         546.109
        5494.539        3285.905         342.239
        3406.580        3831.679         607.232
        9071.574        5348.387         719.398
       10713.360        4080.462         679.801
       10024.005        3313.706         556.152
        8858.901        3726.363         592.044
       10620.728        2590.253         418.642
       12093.221        2840.234         544.652
       16653.219        3305.012         519.787
       11867.293        4199.041         571.531
       17692.898        4081.303         438.924
       15974.345        3882.904         591.227
       17915.600        3067.478         432.169
       22385.224        4171.157         639.976
       21881.420        3526.697         549.825
       23445.030        3300.749         651.231
       21658.112        3332.293         518.376
       26846.135        3054.137         459.701
       28524.874        4295.983         705.716
       28475.234        3019.076         666.568
       27211.127        3695.655         551.434
       30776.122        3262.904         484.142
       30171.785        3805.001         578.806
       28816.084        4337.854         680.257
       33863.373        4786.129         469.487
       34025.492        2519.774         347.342
       32030.848        2290.200         407.645
       35662.204        2714.699         516.017
       35524.994        2354.085         542.422
       41331.214        4368.964         442.606
       41490.201        3760.827         431.181
       38089.812        5037.246         534.272
       43094.484        4347.513         438.820
       45240.849        2940.699         476.294
       44574.906        2281.601         441.033
       46454.654        4462.508         545.085
       47908.891        3125.111         549.798
       44940.462        4884.568         597.699
       47199.866        2211.988         496.318
       47972.298        3239.830         529.764
       48331.305        3153.523         528.687
       48159.477        3741.911         678.257
       48452.659        4280.447         537.752
       52663.684        2975.087         436.599
       55486.917        3349.870         687.804
       52658.926        3490.157         524.292
       56207.730        3499.862         571.764
       54898.186        4204.093         828.777
       56105.393        3890.820         669.399
       61820.017        3162.501         522.099
       62201.362        3408.797         507.092
       62384.582        3122.449         505.832
       61751.950        3401.183         576.632
       65621.029        4241.495         524.478
       65963.758        3148.617         512.797
       66984.463        3735.836         753.407
       67359.080        3431.049         579.323
       67440.921        3450.719         547.727
       67480.848        3935.042         733.591
       67560.099        3577.368         614.155
       70892.959        4294.662         587.096
       70556.795        3185.146         549.531
[...]
POINT_DATA       9503
SCALARS height float 1
LOOKUP_TABLE default
   371.5
   367.5
   359.6
   414.4
   353.1
   371.0
   250.1
   386.1
   411.6
   342.0
   438.1
   353.0
   437.5
   302.0
   395.5
   366.3
   383.0
   356.1
   361.7
   404.6
   317.0
   388.7
   339.1
   257.4
   420.1
   379.6
   259.2
   348.9
   389.9
   385.7
   354.8
   337.7
   326.8
   405.2
   344.1
   394.2
   378.9
   352.6
   332.1
   390.2
   343.2
   313.2
   403.0
   380.5
   407.9
   239.0
   369.0
   361.5
   264.2
   406.9
   412.3
   260.9
   309.9
   397.9
   366.3
   253.8
   348.2
   405.0
   442.0
   382.8
   614.8
   513.2
   551.3
   603.0
   559.3
   575.5
   537.0
   428.3
   569.9
   522.2
   528.6
   438.2
   598.9
   466.4
   497.7
   519.7
   391.5
   517.9
   437.0
   543.3
   561.7
   434.7
   555.0
   592.2
   462.5
   503.2
   492.1
   619.4
   598.0
   459.3
   443.2
   550.3
   627.7
   612.6
   420.0
   460.8
   550.5
   538.7
   396.3
   583.7
   394.2
   497.7
   383.6
   576.9
   447.6
   441.4
   402.9
   418.6
   617.6
   398.2
   499.6
   534.4
   434.5
   383.0
   568.4
   489.1
   594.0
   403.6
   465.7
   701.4
   467.8
   539.0
   624.5
   474.2
   402.4
   556.9
   455.4
   449.5
   547.1
   483.2
   539.1
   419.9
   502.7
   615.3
   544.7
   652.6
   461.5
   525.0
   507.0
   546.1
   342.2
   607.2
   719.4
   679.8
   556.2
   592.0
   418.6
   544.7
   519.8
   571.5
   438.9
   591.2
   432.2
   640.0
   549.8
   651.2
   518.4
   459.7
   705.7
   666.6
   551.4
   484.1
   578.8
   680.3
   469.5
   347.3
   407.6
   516.0
   542.4
   442.6
   431.2
   534.3
   438.8
   476.3
   441.0
   545.1
   549.8
   597.7
   496.3
   529.8
   528.7
   678.3
   537.8
   436.6
   687.8
   524.3
   571.8
   828.8
   669.4
   522.1
   507.1
   505.8
   576.6
   524.5
   512.8
   753.4
   579.3
   547.7
   733.6
   614.2
   587.1
   549.5
   731.4
   672.8
   630.7
   649.2
   682.4
   581.4
   423.2
   436.6
   630.9
   432.3
   220.2
   574.5
   470.0
   640.5
   566.3
   749.7
   738.0
   655.4
   588.5
   585.4
   768.8
   691.1
   431.9
   554.6
   466.4
   529.8
   564.5
   670.6
   694.6
   628.8
   606.4
   552.8
   674.3
   632.3
   638.9
   875.3
   468.2
   464.7
   715.9
   562.4
   592.3
   601.7
   613.6
   671.2
   630.1
   565.7
   750.1
   745.0
   531.1
   652.0
   533.7
   430.8
   447.5
   680.3
   551.6
   774.7
   570.2
   553.7
   661.9
   579.5
   688.3
   464.7
   566.6
   864.9
   666.5
   732.4
   724.1
   568.9
   656.2
   774.4
   438.9
   522.2
   522.0
   526.9
   697.2
   664.3
   759.8
   656.2
   622.9
   560.6
   725.1
   832.2
   819.6
   869.6
   493.3
   545.6
   460.7
   637.4
   812.7
   812.4
   641.1
   735.3
   614.3
   629.8
   719.2
   548.0
   668.8
   634.3
   587.8
   567.3
   576.1
   434.1
   505.1
   555.2
   723.7
   712.0
   627.7
   819.1
   662.0
   700.5
   666.7
   815.4
   785.4
   295.9
   397.4
   603.4
   517.7
   646.6
   509.1
   680.9
   649.1
   689.8
   552.0
   624.4
   734.8
   828.7
   557.7
   555.0
   602.1
   877.5
   837.9
   708.8
   694.6
   638.3
   665.6
   438.1
   507.2
   529.7
   894.4
   776.5
   708.5
   457.8
   430.3
   523.1
   523.8
   621.1
   627.4
   649.7
   792.5
   719.3
   934.8
   732.0
   704.0
   894.2
   659.6
   826.8
   755.5
   837.7
   782.4
   599.0
   827.3
   755.8
   836.0
   713.8
   781.6
   813.5
   796.3
   432.5
   597.5
   574.8
   437.8
   487.3
   444.0
   714.3
   579.6
   554.3
   810.4
   645.2
   802.0
   845.1
   818.1
   748.4
   660.2
   801.6
   756.0
   797.6
   646.8
   839.1
   867.6
   716.1
   710.6
   596.5
   600.1
   744.5
   746.5
   632.1
   603.1
   721.5
   556.7
   523.3
   660.6
   634.0
   745.6
   749.8
   560.6
   758.7
   744.9
   824.5
   816.7
   520.9
   620.1
   419.0
   579.4
   611.2
   485.1
   779.9
   626.0
   595.2
   555.1
   603.6
   564.3
   777.2
   809.3
   516.4
   561.1
   808.7
   695.2
   875.6
   902.1
   620.9
   682.0
   515.3
   658.7
   580.1
   793.3
   820.6
   838.2
   680.8
   585.1
   729.5
   519.1
   508.3
   754.8
   724.4
   813.4
   564.0
   602.6
   635.3
  1043.3
   766.9
   910.4
   929.9
   940.7
  1018.4
   873.9
   922.0
  1005.7
  1051.6
   891.8
   839.6
   815.2
   699.1
   775.5
   750.1
   832.8
   615.0
   510.8
   572.8
   534.6
   438.8
   392.3
   386.0
   507.9
   496.0
   438.7
   462.6
   614.1
   558.9
   822.2
   711.7
   866.8
   774.0
   748.2
   880.6
   701.5
   846.2
   674.8
   581.6
   709.7
   652.4
   556.3
   582.9
   834.7
   965.4
   946.6
   785.0
   948.0
   878.0
   647.2
   722.9
   762.1
  1015.4
  1019.3
   911.5
   666.6
   811.5
   622.5
   625.3
   774.1
   846.2
   678.0
   647.1
   797.2
   788.7
   624.4
   832.7
   611.5
   811.8
   755.4
   948.1
   996.0
   973.3
   500.1
   832.4
   700.3
   669.4
   877.8
   999.4
  1098.9
   584.4
   403.9
   787.8
   748.7
   962.3
   967.9
   682.8
   727.3
   831.8
   796.5
   946.1
   958.0
   950.3
   893.8
   993.9
  1080.7
   929.3
   858.4
   917.0
  1046.5
   762.1
   696.3
   723.8
   685.9
   541.6
   558.3
   605.4
   529.7
   654.9
   568.7
   763.0
   744.3
   655.3
   734.9
   755.2
   657.5
   759.5
   752.5
  1043.6
  1083.3
   829.5
   897.2
   844.7
   893.2
   738.9
   966.1
   903.3
   959.3
   686.7
   718.2
   577.2
   731.0
   842.0
   873.1
   825.7
   645.7
   606.3
   872.4
   580.3
   496.6
   790.4
   862.5
   985.6
   961.9
   836.4
   933.3
   708.4
   951.8
   710.9
   677.4
   618.1
   815.5
   802.1
   491.7
   633.0
   875.1
   659.4
   578.9
   823.9
   914.5
   912.8
   868.4
  1058.8
   861.9
  1052.6
   909.5
   479.7
   612.7
   861.2
   984.0
  1128.1
   975.4
   818.0
   816.0
   780.1
   562.2
   643.6
   482.8
   652.2
   699.7
   854.9
   630.7
   841.2
   891.0
  1073.3
  1223.7
   968.6
   977.1
   720.0
   845.8
   644.9
   813.3
   790.0
   705.1
   630.5
   723.8
   724.5
   614.5
   501.9
   438.0
   558.7
   282.0
   543.1
   716.9
   834.6
   873.7
   777.3
   831.5
   723.4
   762.9
   842.4
   749.8
   868.1
   844.4
   893.9
   821.8
   927.7
   808.0
  1105.6
  1187.4
   911.2
   969.3
   923.4
   973.2
   759.8
   785.1
   678.7
   752.7
   977.0
  1037.1
  1173.8
   926.6
   633.1
   537.0
   575.5
   529.0
   559.0
   539.1
   563.9
   732.1
   761.2
   727.3
   925.2
   771.0
   868.8
  1018.6
   709.7
   748.7
   972.2
   748.5
   792.1
   618.6
   843.2
   787.8
   683.8
   853.2
  1049.3
   964.0
   577.9
   523.8
   824.5
   677.4
   840.9
  1105.5
  1095.4
  1102.5
  1011.4
  1051.3
  1098.7
   747.7
   659.0
   471.5
   549.7
   547.0
   512.9
   403.7
   367.7
   361.6
   493.6
   483.9
   576.9
   514.9
   430.6
   409.0
   611.2
   479.8
   461.7
   684.4
   752.3
   526.5
   586.2
   635.6
   786.7
   738.2
   634.4
   867.9
   970.3
   990.8
  1074.3
  1213.4
  1190.2
  1205.0
   693.8
   816.5
  1070.6
  1078.3
  1329.6
  1067.6
   690.2
   581.0
   669.5
   902.8
   601.9
   919.2
   812.8
   768.1
   605.6
   979.9
  1232.9
  1046.5
  1161.8
   929.2
  1035.7
   787.7
   765.7
  1009.5
   823.8
   986.2
  1062.9
   854.5
  1019.2
  1178.0
   863.6
  1070.2
  1202.7
  1109.3
   683.2
   794.0
   907.7
   899.5
  1018.4
   888.5
   807.6
   979.9
   683.6
   730.7
   609.3
  1053.4
  1206.0
  1168.4
   923.3
  1031.0
  1056.2
  1036.8
   932.4
   968.7
   940.0
   905.0
   893.1
   634.9
   903.8
   874.4
   788.4
   632.4
   685.6
   613.0
   620.9
   717.5
   573.1
   671.2
   629.9
   453.6
   412.1
   445.8
   478.5
   534.5
   691.9
  1128.2
  1166.2
  1093.8
  1137.9
  1000.6
  1174.3
  1061.5
   991.1
  1068.6
  1016.7
  1267.2
  1261.0
   941.4
  1039.6
   997.8
   808.9
   790.6
   930.9
   990.8
   735.2
   984.3
   929.1
   643.6
   823.2
   674.5
   592.4
   900.3
   962.0
   771.0
  1022.1
   879.3
  1181.4
  1161.1
   880.2
  1209.0
  1018.7
  1020.4
   989.6
  1401.3
  1145.4
  1181.9
   824.6
   970.7
  1052.2
   897.0
   958.0
   820.2
   810.0
   737.3
   940.6
  1024.3
   673.3
   661.0
   680.0
   874.2
   787.0
   994.8
  1116.9
  1213.3
   773.1
   977.7
  1036.9
  1077.7
   806.1
   989.5
   889.5
   887.8
   771.6
   739.6
   770.9
   720.4
   559.2
   632.0
   510.8
   438.1
   661.2
   542.1
   465.5
   371.2
   410.9
   433.5
   591.9
   671.8
   641.7
   560.0
   761.5
   546.7
   687.4
   602.7
   637.8
   538.3
   839.6
   674.5
   772.4
   835.9
   705.0
   875.5
   861.0
   817.9
   892.6
   872.9
   929.7
  1099.4
   989.6
  1143.3
  1120.7
  1210.8
  1058.3
  1309.8
  1442.7
  1391.3
  1422.0
  1175.3
  1478.2
  1377.6
  1597.1
  1386.2
  1118.9
  1278.8
   787.0
   889.9
  1083.9
  1034.3
  1127.7
   938.9
  1013.0
   757.8
   799.2
   974.2
  1209.9
  1057.7
   979.5
  1071.6
  1155.6
  1289.3
  1311.0
  1238.1
  1201.5
  1224.6
  1474.1
  1515.6
  1186.5
  1029.4
   918.2
   971.2
  1068.8
   984.8
  1074.5
   904.0
   764.2
   758.2
  1254.9
  1021.0
  1117.4
  1122.5
   958.5
   736.8
   674.5
   619.3
   628.4
   585.0
   791.8
   503.1
   708.2
   492.2
   670.5
   537.1
   447.4
   542.2
   465.4
   621.7
   525.0
   519.2
   432.3
   469.6
   555.6
   657.4
   470.4
   639.7
   817.1
   585.9
   867.6
   752.0
   620.1
   796.1
   600.4
   713.0
   939.3
   769.0
  1161.9
   897.8
  1174.9
  1599.2
  1473.3
  1389.1
  1065.4
  1114.9
  1395.9
  1259.2
  1389.0
  1010.2
   881.4
   857.1
  1069.5
  1161.7
   961.5
  1159.0
  1277.0
  1248.2
  1396.5
  1383.1
  1224.4
  1655.1
  1655.1
  1572.9
  1534.7
  1546.2
  1327.0
  1311.2
  1145.8
  1369.1
  1146.4
  1376.4
  1286.6
  1265.2
  1100.9
  1134.8
   964.9
   957.8
   796.7
  1279.1
  1107.0
  1283.4
   909.2
   853.6
   866.8
   751.2
   740.9
   825.4
  1033.7
   619.6
   426.6
   520.6
   727.7
   642.8
   666.8
   449.3
   458.9
   623.2
   400.9
   466.9
   424.5
   486.8
   557.6
   573.3
   581.6
   663.8
   660.7
   710.6
   576.3
   909.7
  1363.9
  1611.9
  1490.0
  1485.6
  1594.3
  1454.4
  1463.6
  1695.9
  1703.2
  1592.3
  1664.8
  1558.0
  1576.6
  1521.8
  1281.6
  1231.8
  1058.1
  1340.0
  1454.8
  1454.6
  1689.3
  1630.0
  1677.3
  1520.4
  1757.4
  1637.5
  1547.3
  1762.3
  1746.7
  1852.5
  1834.0
  1734.8
  1846.1
  1650.5
  1671.4
  1464.2
  1673.0
  1447.9
  1612.2
  1583.4
  1626.0
  1521.8
  1605.6
  1540.4
  1316.5
  1253.3
  1066.0
  1138.4
  1343.5
  1267.4
  1296.4
  1435.7
  1048.9
   895.4
  1056.7
   595.9
   693.9
   758.4
   634.1
   675.7
   865.1
   691.7
   709.6
   698.7
   675.5
   578.6
   667.5
   620.1
   697.8
   527.9
   484.5
   609.6
   473.3
   306.3
   485.1
   575.2
   639.8
   395.9
   470.8
   542.5
   568.3
   438.7
   606.6
   594.2
   543.8
   707.0
   636.8
   692.9
   666.7
   656.6
   674.0
   884.1
   894.6
   929.7
   787.2
   826.5
   801.2
  1160.8
  1318.9
  1293.3
  1124.2
  1586.7
  1701.8
  1707.8
  1870.4
  1865.5
  1752.7
  1948.4
  1967.2
  1793.2
  1750.5
  1751.4
  1740.8
  1749.8
  1459.8
  1328.8
  1450.1
  1677.3
  1652.9
  1563.1
  1951.5
  1952.2
  1835.5
  1846.4
  1850.3
  2017.8
  1918.4
  1922.7
  1919.3
  1919.7
  1915.7
  1917.9
  1914.9
  1925.5
  1696.6
  1710.9
  1733.4
  1738.9
  1829.7
  1902.0
  1797.8
  1893.5
  1621.3
  1441.2
  1609.2
  1613.3
  1484.8
  1353.8
  1361.6
  1532.3
   953.7
   924.0
   943.9
   786.0
  1010.6
  1004.3
  1010.5
   763.6
   951.7
  1038.8
   917.2
   849.1
   931.0
   825.1
   843.6
   861.3
   711.8
   862.3
   760.6
   674.5
   465.8
   545.3
   431.3
   565.4
   539.0
   469.5
   475.5
   783.4
   833.1
   892.7
  1126.1
   938.6
   913.1
   872.8
   929.6
   912.9
   856.1
   925.3
  1016.0
   952.0
  1110.1
  1011.0
   966.5
  1143.0
  1033.5
  1203.8
  1042.3
  1213.6
  1483.8
  1586.5
  1455.2
  1353.2
  1713.3
  1885.5
  1645.5
  1802.8
  1724.7
  1951.4
  1948.9
  1922.8
  2002.4
  1996.1
  1888.0
  1992.0
  1922.8
  1817.9
  1757.7
  1845.5
  1839.3
  1844.5
  1833.6
  1922.9
  1994.8
  1996.5
  2006.9
  2005.5
  1922.9
  1922.7
  1922.7
  1922.7
  2069.1
  2069.1
  1943.1
  2069.1
  2069.1
  1943.5
  1941.5
  1877.5
  2021.9
  1877.0
  2021.5
  1978.0
  1802.2
  1826.8
  1979.5
  1683.8
  1791.2
  1682.2
  1823.1
  1760.2
  1676.5
  1499.0
  1480.6
  1583.2
  1564.5
  1490.2
  1214.6
  1434.7
  1309.1
   872.4
  1135.2
  1003.9
  1063.9
   866.5
  1053.1
   745.9
   815.9
   659.1
   813.0
   570.5
   640.0
   688.2
   495.5
   485.2
   612.0
   436.9
   608.4
   454.9
   482.0
   454.2
   668.0
   678.4
   652.2
   779.0
   693.1
   691.5
   841.6
   948.2
   903.1
   967.1
   877.8
   908.0
   676.6
   905.8
   839.9
  1062.5
   911.7
  1294.0
  1272.5
   972.9
  1431.3
  1581.8
  1356.4
  1725.7
  1526.9
  2008.7
  1831.3
  1922.8
  1922.8
  1922.8
  2055.0
  2054.9
  1945.0
  2069.2
  1910.7
  2069.2
  2069.1
  1922.9
  2069.0
  2069.1
  2069.0
  2069.1
  2069.1
  2056.9
  2069.0
  2069.1
  1884.3
  2069.0
  2024.6
  1969.2
  1813.9
  1969.2
  1651.4
  1524.8
  1694.4
  1468.8
  1284.0
  1222.3
  1156.5
  1453.3
  1190.6
  1012.6
   940.2
   987.9
   733.6
   740.1
   606.8
   478.2
   501.8
   556.5
   352.4
   579.7
   449.5
   516.1
   540.1
   614.4
   514.1
   686.3
   499.2
   735.6
   587.6
   722.8
   661.5
   503.6
   589.6
   675.7
   609.0
   663.1
   789.9
   721.3
   874.6
   955.0
  1075.8
  1033.3
   779.1
  1366.4
  1196.9
  1398.2
  1454.4
  1945.0
  2002.6
  1945.0
  1945.0
  2069.1
  2069.1
  2069.2
  1922.9
  2069.2
  1922.8
  2069.1
  1922.7
  2069.1
  2069.1
  1922.7
  2069.1
  1922.7
  2069.1
  1922.6
  1922.8
  1821.4
  1969.2
  1805.7
  1706.1
  1822.9
  1146.8
  1063.8
   967.8
   976.9
  1022.0
   925.1
   819.6
  1010.1
  1016.8
   923.1
   919.3
   976.4
   813.8
   847.2
   757.1
   687.6
   694.0
   753.5
   661.3
   565.8
   723.5
   631.7
   676.0
   681.0
   546.7
   478.5
   645.5
   723.6
   452.8
   543.3
   713.0
   616.6
   632.6
   482.2
   468.7
   622.6
   519.6
   487.2
   502.1
   648.4
   650.4
   788.5
   695.2
  1176.0
  1100.7
  1033.9
  1566.4
  1583.6
  1427.7
  1950.4
  2005.7
  2002.8
  1830.2
  2069.0
  2069.1
  1923.0
  1923.0
  1923.0
  2069.1
  2069.1
  1922.9
  1922.9
  1922.9
  1922.9
  1922.8
  1922.8
  1922.7
  1922.7
  1922.7
  1922.7
  1922.6
  2069.1
  2069.0
  1893.7
  2041.5
  1922.6
  1729.7
  1464.8
  1721.8
  1517.3
  1091.4
  1052.1
   899.9
   794.9
   846.9
   680.1
   907.2
   866.8
   864.5
   963.8
   728.5
   893.1
   541.4
   851.7
   691.1
   595.4
   683.1
   441.1
   702.7
   675.6
   581.6
   834.5
   472.0
   436.0
   536.4
   399.0
   582.7
   494.4
   408.7
   555.0
   417.9
   404.1
   437.7
   371.9
   467.6
   538.9
   650.3
   538.1
   611.9
   630.2
   665.6
   575.9
   599.4
   649.1
   796.8
   652.3
   794.9
   619.9
   987.3
   853.7
   853.1
   783.5
   681.0
   837.6
   740.0
   840.7
   748.8
   914.6
   992.6
   993.9
  1394.6
  1426.7
  1820.3
  1951.0
  1939.1
  1716.5
  1954.0
  2069.1
  2069.1
  1923.0
  2069.3
  2069.1
  2069.2
  2069.1
  1923.0
  2056.3
  2069.1
  2069.0
  2069.0
  1922.8
  2069.0
  2066.6
  2066.6
  2069.1
  2069.2
  2069.1
  1922.6
  1922.6
  1922.6
  1922.6
  1892.2
  2045.9
  1928.4
  1737.6
  1529.4
  1490.9
  1387.6
  1361.2
  1234.7
   715.1
   691.9
   661.7
   576.7
   576.5
   572.8
   522.8
   584.2
   473.2
   458.0
   654.4
   684.1
   470.1
   626.2
   488.9
   675.3
   588.3
   474.1
   349.5
   501.8
   589.1
   704.1
   648.1
   638.5
   986.9
   903.6
   950.2
  1083.9
   929.6
   855.0
  1132.7
  1099.2
  1047.8
  1186.7
  1355.9
  1687.8
  1550.0
  1694.9
  1941.1
  1940.7
  1843.0
  2069.1
  2069.1
  2069.1
  2069.1
  2047.1
  2069.3
  1922.8
  1923.0
  1923.0
  2069.1
  1922.8
  1922.8
  1922.8
  2023.4
  2066.6
  2069.0
  1922.9
  2050.2
  2069.1
  1922.8
  1803.9
  1997.1
  2050.2
  1837.7
  1794.7
  1439.1
  1282.0
  1242.3
  1476.3
   809.9
   784.2
   984.3
   762.6
   872.7
   939.0
   768.3
   719.1
   769.2
   804.9
   797.8
   821.4
   805.9
   649.8
   428.3
   411.9
   658.7
   457.7
   554.0
   445.4
   319.8
   511.8
   454.9
   394.4
   577.1
   582.1
   680.0
   641.4
   665.0
   469.5
   746.0
   703.0
   718.7
   598.0
   642.6
   711.3
   720.0
   742.2
   763.1
   803.0
  1083.1
  1449.2
  1382.7
  1460.8
  1430.1
  1468.3
  1740.1
  1703.5
  1761.7
  1835.9
  1845.3
  1723.2
  2044.4
  2067.3
  1946.3
  1922.8
  1923.0
  2069.1
  2067.3
  1922.8
  1923.0
  1922.8
  1922.8
  2069.1
  2069.1
  2069.1
  1922.9
  2069.2
  2069.2
  2023.4
  2023.4
  2066.6
  2066.6
  2061.0
  2050.2
  2002.3
  2050.2
  1997.6
  1973.1
  2002.8
  1474.8
   957.5
   932.5
  1174.3
  1050.1
  1088.0
   888.2
  1089.5
   861.8
  1122.8
   759.5
   835.6
   858.7
   902.2
   607.4
   625.9
   855.4
   685.3
   713.8
   417.8
   466.7
   516.0
   416.0
   559.4
   477.1
   581.6
   559.9
   583.4
   622.5
   744.8
   574.4
   610.4
   729.1
   771.0
   676.3
   739.0
   847.0
   954.2
   773.0
   988.8
   697.2
   901.1
   866.6
   874.9
  1226.8
  1067.3
  1266.1
  1119.6
  1409.8
  1222.1
  1692.7
  1476.8
  1679.3
  1731.8
  1845.8
  1949.5
  1923.0
  2067.3
  1923.0
  1923.0
  1922.8
  2069.1
  2069.2
  2052.8
  2069.2
  2069.2
  2069.1
  2069.2
  2069.2
  2069.2
  2050.3
  2069.1
  2061.3
  1986.6
  2049.4
  1973.1
  1883.0
  1790.7
  1765.6
  1802.8
  1887.9
  1353.8
  1181.7
  1371.1
  1193.4
  1161.0
  1472.7
  1326.9
  1322.4
  1459.2
   871.0
   772.4
   740.9
   710.1
   684.6
   668.5
   569.6
   558.5
   553.4
   688.3
   440.8
   649.1
   678.3
   479.4
   526.1
   602.5
   518.2
   410.1
   485.7
   553.2
   453.8
   523.5
   415.0
   374.1
   442.3
   551.4
   449.2
   491.7
   496.5
   726.0
   628.7
   523.4
   606.2
   685.2
   499.8
   704.4
   635.8
  1136.5
  1024.6
  1217.3
  1426.3
  1474.3
  1727.6
  1755.4
  1869.8
  1637.9
  2031.1
  2044.5
  2069.3
  2030.5
  2069.3
  1922.8
  1922.8
  1922.8
  1922.8
  1922.8
  2069.2
  2069.2
  2069.2
  1977.3
  1922.7
  2069.2
  2069.1
  2069.1
  2069.1
  1977.3
  2069.1
  1922.8
  1922.8
  2069.1
  1986.6
  1986.7
  1815.5
  1602.8
  1698.4
  1803.3
  1547.4
  1464.0
  1528.4
  1140.4
  1210.1
  1228.1
  1329.7
  1301.4
   930.7
   722.0
   903.2
   964.1
   922.7
   848.0
   652.3
   871.7
   739.8
   746.1
   549.8
   578.8
   809.4
   819.1
   835.0
   862.2
   834.0
   854.4
   580.7
   512.8
   415.5
   476.6
   487.9
   428.2
   340.3
   547.9
   479.0
   511.5
   408.9
   737.8
   679.9
   684.5
   942.2
  1012.4
   828.4
  1332.0
  1371.8
  1214.5
  1534.0
  1762.3
  1725.2
  1757.5
  2031.1
  1923.0
  2069.1
  2069.1
  2069.1
  1923.0
  2069.1
  2069.2
  2069.1
  2069.1
  2069.2
  2069.2
  2069.2
  1922.7
  1922.7
  1922.8
  1922.8
  1922.8
  1922.8
  1922.8
  2069.0
  2057.3
  1922.9
  1922.9
  1922.9
  1922.8
  1922.8
  1922.8
  1922.8
  1730.9
  1933.6
  1718.9
  1128.3
  1191.2
  1268.1
  1309.4
  1131.6
   995.9
   898.3
  1139.1
   862.3
  1178.1
  1086.9
  1050.2
  1066.0
   804.6
   917.9
   683.9
   657.1
   723.5
   796.7
   768.6
   512.8
   541.9
   605.6
   439.8
   524.3
   583.8
   677.2
   464.6
   656.2
   544.2
   478.8
   612.0
   537.3
   660.4
   687.2
   631.9
   565.3
   802.2
   762.6
   557.9
   802.7
   544.5
   569.9
   547.1
   638.5
   598.3
   787.3
   802.6
   691.0
   828.6
   660.3
   808.8
  1043.9
  1188.5
  1281.8
  1077.8
  1459.7
  1300.2
  1447.5
  1709.5
  1835.0
  1942.6
  1923.0
  1781.7
  1923.1
  1923.0
  2069.1
  2069.2
  2069.2
  2069.2
  2069.2
  1922.9
  1922.9
  1977.3
  2069.2
  2069.0
  2069.0
  1985.6
  2069.1
  1922.7
  2068.9
  1746.2
  1940.1
  1788.1
  1693.3
  1721.9
  1466.7
  1172.8
  1440.6
  1462.1
   790.5
   911.5
   742.0
   699.0
   743.4
   575.2
   653.9
   854.0
   813.5
   566.2
   607.7
   539.4
   657.6
   739.5
   709.4
   738.0
   715.4
   439.1
   382.6
   493.0
   488.4
   779.3
   592.5
   618.7
   737.9
   541.5
   651.5
   555.6
   733.8
   739.6
   604.5
   622.8
   595.4
   819.6
   767.5
   866.1
   775.9
   810.4
   612.0
   819.1
   750.6
   704.9
   541.9
   625.6
   714.3
   726.2
   707.2
   868.1
   832.0
   975.3
   932.6
  1553.1
  1765.9
  1998.1