# vtk DataFile Version 3.0
divides
ASCII
DATASET UNSTRUCTURED_GRID
POINTS       7650 float
        1762.045        1349.153         364.813
        5745.606        1145.905         376.877
        4511.903        1236.903         354.284
        7812.399        1222.819         409.525
        8175.112        1197.905         347.063
       11194.112        1513.050         378.571
       10788.580         520.405         254.676
       13989.213        1274.606         398.583
       11549.399        1539.911         416.909
       14490.475        1242.962         351.023
       18446.608        1089.178         365.558
       17280.366        1633.470         392.231
       20602.531        1488.055         422.182
       21359.950         594.095         290.762
       20881.928        1488.408         377.006
       25121.271         989.218         377.605
       23794.585        1370.847         366.676
       26225.338         990.476         367.959
       27435.098        1226.783         352.492
       29959.852        1478.744         411.289
       30849.700         541.315         269.498
       30085.517        1517.476         383.203
       34475.081        1671.203         412.838
       33443.071        1370.585         367.347
       33085.045         496.038         271.813
       34595.555        1681.460         405.052
       37064.229        1248.042         355.900
       38852.587         524.970         266.092
       38260.070        1264.722         355.878
       37281.997        1216.320         393.954
       40600.275        1114.175         380.131
       41797.381        1520.284         383.554
       43349.626        1277.878         358.218
       45859.627         950.007         334.552
       46723.272        1273.862         361.793
       50593.695         942.705         368.631
       49968.471        1799.440         412.163
       49168.326         755.358         301.056
       51706.186         939.304         376.600
       52919.369        1189.981         348.659
       55469.445        1156.809         389.597
       55862.763        1144.089         343.429
       59073.672        1060.545         332.825
       61861.654        1150.889         391.805
       60531.905        1234.332         358.965
       63637.915        1481.135         424.951
       64364.970         540.930         250.510
       63802.352        1519.396         390.333
       67274.044        1295.825         365.228
       66781.121         545.338         263.986
       67683.607        1319.323         409.682
       70384.107        1667.267         403.950
       69886.097         491.280         271.149
       72143.469         957.377         319.106
       74701.342        1215.413         401.278
       72656.801         988.159         372.809
       75650.509         497.171         257.567
       75103.392        1200.153         353.145
       76244.389        1568.426         403.761
       78310.529        1371.952         435.583
       78634.482        1362.888         375.521
       79485.346         679.939         570.154
         858.274        1711.321         481.422
        1594.546        3235.424         523.455
         719.984        2660.617         520.129
        3393.208        1670.512         535.589
        4981.176        2869.029         565.469
        3545.821        2830.272         574.422
        4985.430        1614.748         438.436
        7326.063        3728.288         591.114
        9418.850        2035.988         527.707
        7109.589        2445.522         538.993
        7579.745        1635.525         447.567
        9351.950        3319.362         578.580
        8890.107        1380.843         461.206
       12354.144        1938.050         520.748
       12677.541        2354.218         549.324
       10585.910        2159.627         442.279
       16613.504        1906.307         514.728
       17607.253        1882.901         427.875
       16536.741        2161.789         552.415
       17396.777        2731.148         563.677
       20427.033        1790.451         437.453
       20645.650        3516.118         608.370
       21484.635        2356.064         537.845
       21336.893        1679.016         430.719
       20320.323        2289.339         531.948
       24688.941        2341.718         518.621
       22637.491        2482.710         535.007
       23153.448        1650.086         431.353
       24359.704        1703.601         446.479
       27236.912        2893.375         539.514
       29455.090        1611.100         579.886
       29972.546        2708.224         613.706
       26920.061        1573.107         431.070
       30503.525        1738.241         520.319
       30262.881        2425.161         627.286
       32063.577        1996.935         470.192
       35395.900        1679.954         636.998
       37423.021        1539.399         423.591
       36994.975        2090.450         552.908
       39068.081        1749.776         430.117
       38080.697        4716.704         572.040
       39696.936        3077.229         525.343
       41030.992        2699.209         571.043
       42269.024        3216.919         589.875
       42509.812        2351.859         538.836
       42352.643        1859.539         450.118
       41339.712        1793.777         447.562
       44433.006        1670.291         446.339
       46566.249        1823.418         547.430
       47053.142        1390.931         468.740
       46530.951        1342.475         422.416
       50042.068        1808.685         426.805
       50234.915        2078.795         537.344
       49683.653        1799.616         512.137
       49419.166        2237.259         663.878
       54269.302        1535.441         548.984
       52087.286        2219.263         530.517
       52369.759        1507.803         438.952
       57454.645        3684.576         610.032
       56957.224        1571.208         515.690
       53422.640        2821.310         610.579
       60018.008        1551.373         425.211
       57803.846        3811.693         540.307
       61322.240        2356.883         572.292
       59926.308        2314.301         551.343
       61049.356        1555.963         472.696
       63271.528        2119.543         602.488
       63469.359        1656.331         458.253
       63918.475        2136.838         528.710
       68372.130        1982.398         502.586
       68010.373        1474.512         461.981
       69429.746        2988.400         638.333
       70838.712        1802.836         487.986
       70970.586        2227.460         561.833
       69959.900        2011.809         472.553
       73949.077        1553.765         513.459
       73666.862        3986.163         615.765
       73505.385        2311.696         561.599
       76834.941        1670.678         607.478
       79221.388        1673.077         437.955
       78678.884        2448.642         508.143
         660.696        3785.002         500.841
        4531.809        4412.939         720.631
        4171.003        3256.632         677.839
        2900.040        3461.339         564.568
        5642.599        4174.867         678.362
        5362.610        3291.548         463.771
        9007.964        5613.196         792.913
        8513.297        4848.071         780.512
        9925.927        3358.723         650.538
       11003.745        4207.017         780.723
        8863.849        3725.031         725.925
       10681.693        2625.236         504.556
       11712.405        2840.155         590.878
       16794.285        3337.012         562.624
       11499.431        4381.444         610.983
       17746.851        4317.385         566.854
       15806.048        3922.279         633.837
       17852.691        3146.581         462.645
       21705.146        4327.456         600.866
       23449.073        3301.982         600.437
       21163.295        3956.012         594.305
       24236.890        3328.810         550.846
       26959.206        3071.405         546.112
       28321.532        4114.569         763.418
       28639.061        3007.852         761.258
       27222.597        4051.543         739.573
       31694.145        4120.190         763.073
       29062.637        4108.777         762.723
       33951.528        2550.956         476.815
       32215.726        2378.036         513.549
       35540.611        2676.495         581.578
       35147.147        2144.209         614.617
       41307.620        4350.736         586.592
       41692.621        3799.015         595.180
       38467.365        4771.438         630.748
       42853.581        4982.125         582.812
       45079.687        2958.688         555.797
       44229.904        2568.738         496.878
       47535.507        3059.615         569.307
       46830.435        2447.279         508.273
       44943.018        4880.492         628.430
       47555.607        3415.230         577.274
       48851.589        3116.505         600.904
       48174.698        4392.451         644.131
       48185.208        4411.937         638.993
       52889.748        2978.431         570.713
       55323.634        3324.437         803.681
       53884.051        4212.697         783.419
       51602.496        4643.400         804.261
       56528.938        3608.501         754.425
       55146.534        4029.759         822.874
       56231.277        4446.614         822.823
       60840.355        3187.057         584.580
       62457.851        4255.532         573.867
       63083.244        3035.374         556.989
       59671.045        4777.190         664.863
       65749.999        4357.336         628.873
       65939.539        3145.389         611.289
       66439.866        4075.915         846.009
[...]
POINT_DATA       7650
SCALARS height float 1
LOOKUP_TABLE default
   364.8
   376.9
   354.3
   409.5
   347.1
   378.6
   254.7
   398.6
   416.9
   351.0
   365.6
   392.2
   422.2
   290.8
   377.0
   377.6
   366.7
   368.0
   352.5
   411.3
   269.5
   383.2
   412.8
   367.3
   271.8
   405.1
   355.9
   266.1
   355.9
   394.0
   380.1
   383.6
   358.2
   334.6
   361.8
   368.6
   412.2
   301.1
   376.6
   348.7
   389.6
   343.4
   332.8
   391.8
   359.0
   425.0
   250.5
   390.3
   365.2
   264.0
   409.7
   404.0
   271.1
   319.1
   401.3
   372.8
   257.6
   353.1
   403.8
   435.6
   375.5
   570.2
   481.4
   523.5
   520.1
   535.6
   565.5
   574.4
   438.4
   591.1
   527.7
   539.0
   447.6
   578.6
   461.2
   520.7
   549.3
   442.3
   514.7
   427.9
   552.4
   563.7
   437.5
   608.4
   537.8
   430.7
   531.9
   518.6
   535.0
   431.4
   446.5
   539.5
   579.9
   613.7
   431.1
   520.3
   627.3
   470.2
   637.0
   423.6
   552.9
   430.1
   572.0
   525.3
   571.0
   589.9
   538.8
   450.1
   447.6
   446.3
   547.4
   468.7
   422.4
   426.8
   537.3
   512.1
   663.9
   549.0
   530.5
   439.0
   610.0
   515.7
   610.6
   425.2
   540.3
   572.3
   551.3
   472.7
   602.5
   458.3
   528.7
   502.6
   462.0
   638.3
   488.0
   561.8
   472.6
   513.5
   615.8
   561.6
   607.5
   438.0
   508.1
   500.8
   720.6
   677.8
   564.6
   678.4
   463.8
   792.9
   780.5
   650.5
   780.7
   725.9
   504.6
   590.9
   562.6
   611.0
   566.9
   633.8
   462.6
   600.9
   600.4
   594.3
   550.8
   546.1
   763.4
   761.3
   739.6
   763.1
   762.7
   476.8
   513.5
   581.6
   614.6
   586.6
   595.2
   630.7
   582.8
   555.8
   496.9
   569.3
   508.3
   628.4
   577.3
   600.9
   644.1
   639.0
   570.7
   803.7
   783.4
   804.3
   754.4
   822.9
   822.8
   584.6
   573.9
   557.0
   664.9
   628.9
   611.3
   846.0
   645.3
   596.1
   840.3
   695.7
   746.9
   629.6
   785.7
   710.6
   616.1
   675.1
   757.3
   568.0
   423.7
   439.8
   602.4
   433.4
   220.7
   553.7
   462.6
   629.4
   690.7
   703.0
   874.3
   639.8
   809.6
   822.9
   822.9
   769.7
   822.9
   722.8
   607.0
   778.7
   649.4
   607.1
   654.4
   669.3
   719.4
   819.2
   823.2
   733.9
   731.4
   823.2
   822.7
   879.8
   823.2
   822.7
   822.7
   822.7
   613.0
   831.1
   810.8
   790.0
   819.3
   831.1
   873.4
   655.4
   658.0
   924.9
   823.0
   731.0
   768.9
   733.4
   777.2
   732.1
   768.7
   703.0
   714.7
   798.6
   848.7
   749.0
   856.9
   822.6
   862.3
   918.5
   822.7
   822.8
   762.8
   822.6
   822.7
   822.8
   949.6
   907.3
   947.4
   728.2
   767.2
   785.5
   804.5
   860.8
   863.0
   857.7
   821.8
   876.2
   825.2
   726.0
   831.6
   761.3
   718.3
   882.2
   859.0
   479.0
   510.9
   436.3
   593.7
   906.4
   911.0
   822.9
   664.1
   720.7
   725.1
   822.9
   822.9
   822.7
   852.9
   899.0
   904.8
   914.3
   876.0
   863.1
   865.6
   876.7
   897.6
   894.5
   880.9
   823.0
   734.8
   969.3
   823.1
   725.2
   729.5
   823.2
   823.1
   969.0
   823.1
   969.0
   969.0
   823.9
   969.0
   969.3
   969.0
   823.0
   751.6
   965.3
   964.3
   820.9
   920.6
   912.6
   919.2
   921.8
   822.7
   936.9
   955.1
   936.9
   822.7
   756.1
   822.7
   822.7
   822.7
   822.7
   822.7
   969.1
   969.1
   826.0
   901.7
   914.9
   775.4
   845.2
   848.9
   880.9
   891.3
   951.8
   953.6
   952.3
   937.1
   921.7
   969.2
   936.8
   823.0
   938.2
   937.1
   772.0
   644.2
   876.0
   769.2
   823.0
   443.3
   553.8
   519.5
   430.2
   540.2
   505.4
   704.4
   707.3
   638.9
   935.4
   935.4
   822.9
   822.9
   822.7
   969.1
   969.1
   969.0
   969.0
   969.1
   969.1
   872.6
   823.0
   823.0
   823.0
   823.0
   823.1
   823.1
   823.1
   969.0
   823.9
   969.2
   823.2
   823.2
   823.9
   969.0
   969.1
   969.1
   969.3
   969.0
   969.0
   969.1
   969.1
   822.7
   969.0
   822.7
   822.7
   822.6
   968.9
   822.6
   968.9
   968.9
   969.0
   969.0
   822.6
   969.1
   969.1
   914.2
   969.1
   932.0
   929.2
   959.8
   937.6
   961.6
   959.6
   956.6
   959.5
   959.0
   969.2
   940.3
   969.3
   969.2
   969.3
   969.3
   969.1
   823.0
   823.0
   763.3
   823.0
   635.9
   558.4
   596.2
   532.3
   462.9
   426.5
   428.0
   476.5
   563.5
   463.4
   508.3
   969.0
   822.7
   969.1
   702.8
   969.1
   969.1
   822.7
   822.7
   822.7
   969.1
   896.2
   969.1
   969.2
   969.2
   917.3
   969.2
   969.2
   822.9
   822.9
   822.9
   969.0
   969.0
   969.0
   969.0
   969.0
   969.1
   969.1
   923.7
   969.1
   969.1
   969.0
   847.5
   822.8
   822.8
   822.8
   822.8
   968.9
   969.0
   969.1
   969.0
   969.0
   969.1
   822.6
   822.8
   822.8
   914.2
   969.1
   969.1
   822.8
   914.2
   822.9
   969.2
   822.8
   939.4
   969.2
   969.2
   822.9
   823.0
   823.0
   969.2
   969.2
   969.1
   969.2
   728.7
   884.9
   927.7
   646.1
   546.2
   521.6
   546.4
   537.0
   642.9
   694.5
   653.0
   709.8
   905.0
   822.7
   950.9
   822.7
   822.8
   822.7
   828.0
   969.1
   822.8
   822.8
   822.8
   822.8
   822.7
   969.1
   969.1
   969.2
   969.1
   969.2
   837.6
   969.2
   822.9
   969.2
   917.3
   945.1
   969.1
   822.8
   969.0
   969.1
   969.1
   969.1
   969.0
   873.6
   969.1
   822.8
   847.5
   847.5
   847.5
   969.1
   822.8
   822.8
   969.0
   969.0
   969.0
   822.7
   969.1
   969.2
   969.1
   969.1
   914.2
   914.2
   935.4
   969.1
   822.9
   969.1
   822.9
   822.9
   965.1
   969.2
   969.2
   910.1
   969.1
   969.1
   822.9
   822.9
   959.4
   896.8
   886.5
   903.6
   569.7
   472.4
   508.4
   264.6
   518.9
   636.4
   714.0
   949.5
   708.3
   811.6
   969.0
   905.0
   905.0
   822.8
   822.8
   828.0
   828.0
   828.0
   822.7
   969.1
   877.8
   917.3
   822.7
   837.6
   969.1
   878.4
   822.5
   822.8
   969.1
   822.8
   822.5
   873.6
   873.6
   873.6
   969.1
   969.1
   969.1
   969.1
   969.0
   969.3
   969.1
   969.2
   823.0
   969.0
   822.8
   969.1
   969.0
   969.0
   969.0
   822.7
   822.7
   822.7
   822.8
   935.4
   935.4
   935.4
   822.8
   969.1
   969.1
   969.1
   969.2
   969.1
   969.1
   910.1
   910.1
   910.1
   969.1
   969.2
   965.1
   879.2
   960.9
   692.6
   864.7
   901.3
   721.2
   634.0
   517.0
   360.0
   397.4
   476.7
   468.9
   549.0
   639.4
   462.1
   495.8
   879.4
   717.6
   813.6
   893.2
   969.0
   969.1
   969.1
   969.1
   969.1
   969.1
   822.8
   822.7
   969.1
   822.7
   822.7
   969.2
   837.6
   969.2
   969.2
   822.9
   847.2
   822.5
   969.1
   822.5
   822.6
   822.8
   969.1
   822.8
   913.7
   941.8
   822.8
   822.7
   822.8
   969.0
   822.8
   969.0
   969.1
   822.8
   969.0
   919.8
   969.0
   969.1
   969.0
   822.8
   822.8
   822.8
   822.8
   969.1
   969.1
   969.2
   969.1
   969.1
   969.0
   969.1
   963.7
   965.1
   969.0
   969.0
   968.2
   969.1
   857.0
   968.2
   657.5
   593.1
   688.5
   492.6
   469.6
   493.0
   555.5
   898.1
   882.7
   969.0
   822.8
   932.7
   969.0
   969.1
   969.1
   822.8
   822.7
   822.7
   822.7
   822.7
   969.2
   969.2
   969.2
   969.1
   837.6
   969.2
   822.9
   969.1
   878.4
   822.9
   822.9
   822.9
   969.1
   969.0
   969.0
   941.8
   913.7
   822.8
   822.8
   847.4
   825.5
   822.8
   822.7
   822.8
   822.8
   822.8
   969.1
   969.1
   822.8
   969.0
   969.0
   919.8
   969.1
   969.1
   969.1
   963.3
   969.1
   822.8
   969.1
   969.0
   969.0
   822.8
   969.0
   969.1
   966.9
   969.0
   866.0
   863.2
   472.4
   443.7
   567.0
   603.7
   521.0
   342.7
   440.5
   420.8
   537.3
   614.3
   672.5
   676.1
   870.0
   822.9
   932.4
   726.9
   822.8
   822.9
   822.8
   822.8
   822.8
   969.1
   969.1
   969.1
   969.2
   969.1
   969.2
   969.1
   969.2
   969.1
   969.1
   936.5
   969.0
   969.0
   969.0
   822.8
   969.0
   969.0
   969.0
   822.8
   822.7
   822.8
   969.1
   834.5
   969.1
   822.7
   919.8
   969.0
   969.0
   969.0
   822.8
   969.0
   969.1
   969.0
   969.0
   969.1
   822.8
   822.8
   822.8
   822.8
   969.1
   880.3
   969.1
   822.8
   822.7
   969.1
   969.0
   969.1
   969.1
   967.3
   963.2
   822.7
   720.4
   515.7
   515.9
   430.3
   497.4
   686.1
   662.9
   786.1
   741.5
   822.9
   822.9
   822.9
   823.0
   822.9
   822.9
   969.3
   969.3
   969.1
   969.2
   969.1
   969.2
   969.1
   969.2
   969.1
   969.1
   969.1
   969.2
   969.1
   969.1
   969.1
   969.1
   969.1
   969.1
   969.1
   969.0
   822.8
   822.8
   822.8
   822.8
   825.5
   822.9
   969.0
   847.4
   969.0
   822.6
   822.7
   822.7
   822.7
   822.6
   822.8
   969.1
   822.8
   822.8
   931.5
   969.0
   969.0
   931.5
   969.1
   969.1
   822.7
   956.2
   880.3
   880.3
   880.6
   969.1
   969.1
   822.7
   822.7
   962.9
   964.7
   678.7
   594.6
   475.9
   564.3
   704.3
   431.4
   532.3
   468.8
   839.8
   869.9
   969.3
   969.3
   969.3
   969.2
   969.2
   969.3
   827.9
   969.1
   822.8
   969.2
   845.2
   969.2
   969.1
   822.9
   969.1
   822.9
   822.9
   893.6
   969.1
   908.0
   822.8
   969.1
   822.8
   822.8
   969.1
   969.1
   969.1
   969.1
   891.3
   822.9
   847.4
   822.6
   822.6
   822.8
   822.8
   822.6
   822.9
   969.0
   969.0
   822.9
   931.5
   822.7
   931.5
   822.7
   822.7
   822.7
   969.2
   969.2
   968.9
   969.2
   880.6
   969.1
   822.8
   880.6
   822.8
   822.8
   969.0
   969.1
   909.8
   947.2
   963.3
   873.6
   969.1
   704.1
   869.1
   487.1
   486.7
   600.9
   450.4
   294.5
   455.0
   544.1
   571.2
   413.6
   437.5
   622.2
   675.4
   616.3
   858.2
   857.0
   807.0
   969.2
   969.3
   969.3
   822.9
   969.2
   969.3
   969.2
   969.1
   969.1
   822.8
   969.1
   969.2
   969.2
   833.3
   969.1
   969.1
   969.1
   969.0
   969.1
   969.2
   908.0
   969.1
   969.1
   969.2
   969.2
   969.2
   822.8
   822.6
   822.6
   822.6
   822.6
   822.6
   822.6
   822.6
   822.6
   969.2
   822.9
   969.1
   822.9
   822.6
   968.9
   822.9
   968.9
   968.9
   968.9
   822.8
   880.6
   822.8
   968.9
   822.8
   943.5
   909.8
   969.1
   969.1
   969.1
   952.1
   926.7
   950.6
   855.5
   874.3
   467.4
   556.7
   454.9
   588.2
   597.5
   475.9
   514.7
   831.3
   704.6
   845.8
   969.2
   910.1
   967.5
   822.9
   969.0
   969.2
   880.1
   823.0
   969.1
   845.2
   827.9
   969.1
   823.0
   969.1
   969.0
   969.2
   969.0
   823.1
   969.1
   969.2
   969.1
   823.1
   969.1
   908.0
   969.1
   822.8
   969.1
   969.1
   969.1
   889.7
   969.1
   969.2
   969.2
   969.1
   822.9
   822.7
   822.7
   822.7
   969.1
   969.1
   822.9
   969.1
   969.1
   822.9
   822.9
   822.9
   969.2
   969.0
   822.6
   852.0
   968.9
   822.6
   968.9
   822.9
   968.9
   880.4
   822.6
   822.8
   880.4
   969.1
   969.1
   969.2
   969.1
   822.8
   933.7
   969.1
   835.2
   822.8
   524.0
   488.1
   544.6
   390.3
   438.4
   452.2
   489.9
   908.6
   909.3
   969.2
   968.1
   969.1
   822.8
   969.2
   969.1
   969.3
   969.1
   823.0
   822.9
   969.1
   969.0
   822.8
   969.3
   968.9
   823.1
   822.9
   822.8
   960.5
   969.1
   889.7
   889.7
   879.9
   969.2
   969.2
   969.1
   822.9
   969.0
   969.1
   969.0
   969.1
   969.1
   956.9
   969.0
   969.1
   969.0
   969.0
   942.3
   968.8
   822.6
   942.3
   822.6
   822.6
   968.9
   846.9
   822.9
   822.8
   880.4
   880.4
   880.4
   880.4
   822.8
   969.1
   969.1
   822.8
   822.8
   793.5
   822.8
   710.1
   809.7
   809.4
   553.2
   381.6
   536.8
   463.8
   493.9
   561.7
   746.0
   968.0
   968.3
   729.4
   822.8
   969.2
   969.0
   969.1
   822.8
   969.0
   822.7
   968.9
   969.1
   969.0
   969.2
   822.7
   969.1
   969.1
   879.9
   822.9
   879.9
   879.9
   969.2
   969.0
   969.2
   822.9
   969.1
   822.8
   969.2
   822.7
   969.1
   969.1
   822.7
   969.1
   822.7
   969.1
   822.7
   822.8
   942.3
   942.3
   852.0
   968.9
   852.0
   822.6
   846.9
   969.1
   969.1
   822.6
   969.1
   969.1
   822.8
   822.8
   822.7
   822.8
   822.8
   822.8
   934.6
   897.5
   822.7
   729.0
   492.6
   641.4
   694.2
   436.5
   599.2
   638.9
   505.6
   672.3
   609.8
   651.1
   690.1
   969.1
   969.1
   735.4
   822.8
   822.8
   969.1
   969.1
   969.1
   822.7
   822.7
   822.7
   969.1
   822.9
   822.9
   969.1
   969.0
   969.1
   969.1
   969.1
   823.0
   823.0
   823.0
   969.2
   969.1
   822.9
   822.9
   822.9
   822.9
   822.8
   822.8
   822.7
   822.7
   822.7
   822.7
   822.6
   969.1
   969.0
   969.1
   822.6
   822.6
   822.6
   822.6
   969.0
   846.9
   822.6
   822.6
   822.6
   822.7
   969.0
   969.0
   969.0
   969.0
   969.0
   822.7
   822.7
   822.7
   879.3
   894.0
   444.4
   450.9
   514.8
   392.3
   541.0
   481.8
   444.1
   472.7
   470.4
   579.3
   634.1
   558.6
   923.3
   736.6
   969.0
   773.2
   969.0
   969.0
   969.0
   969.1
   969.0
   822.7
   969.0
   969.1
   969.2
   822.7
   969.1
   822.7
   822.8
   969.1
   822.7
   969.1
   969.2
   822.8
   969.2
   969.1
   969.1
   969.2
   969.1
   969.1
   823.0
   969.3
   969.1
   969.2
   969.1
   823.0
   956.3
   969.0
   969.0
   969.0
   822.8
   969.0
   969.0
   969.3
   969.1
   969.2
   969.1
   822.6
   822.6
   822.6
   822.6
   969.1
   969.1
   968.9
   969.1
   968.9
   968.9
   968.9
   968.9
   969.1
   822.7
   822.8
   822.7
   822.7
   822.7
   831.9
   930.3
   913.7
   898.8
   822.7
   774.1
   719.5
   586.1
   550.4
   632.8
   598.9
   527.5
   514.0
   516.4
   924.0
   926.7
   887.2
   969.0
   822.8
   969.1
   822.7
   822.7
   822.7
   822.7
   822.7
   822.7
   822.8
   822.7
   822.8
   822.8
   969.1
   822.8
   822.8
   969.1
   969.1
   969.1
   969.1
   969.1
   947.1
   969.3
   822.8
   823.0
   823.0
   969.1
   822.8
   822.8
   822.8
   969.1
   969.0
   969.0
   822.9
   969.1
   969.2
   822.8
   969.1
   822.8
   969.1
   969.1
   969.1
   969.1
   956.1
   969.1
   969.1
   822.8
   822.8
   822.8
   822.7
   792.9
   447.5
   585.6
   414.1
   506.5
   560.6
   302.0
   469.1
   438.6
   414.4
   543.1
   588.0
   661.6
   729.5
   883.9
   742.3
   899.2
   803.7
   749.5
   951.1
   969.1
   822.8
   961.2
   822.8
   822.8
   903.9
   969.2
   822.9
   969.1
   969.1
   969.1
   822.9
   822.7
   822.8
   822.7
   969.1
   822.7
   822.8
   823.0
   969.1
   969.1
   822.8
   823.0
   822.8
   822.8
   969.1
   969.1
   969.1
   822.9
   969.2
   969.2
   969.1
   969.2
   969.2
   969.2
   963.6
   969.2
   969.1
   969.2
   969.1
   969.2
   969.1
   969.2
   969.1
   969.1
   969.1
   969.1
   969.1
   969.1
   898.4
   969.1
   969.1
   822.8
   969.1
   969.1
   969.1
   843.7
   969.0
   969.1
   831.9
   969.1
   926.8
   969.1
   891.2
   643.8
   809.5
   820.2
   813.8
   440.1
   587.0
   554.5
   618.1
   606.3
   793.6
   819.0
   861.6
   945.6
   851.7
   969.1
   969.0
   951.4
   969.2
   903.9
   822.8
   969.1
   903.9
   822.8
   822.9
   969.1
   822.7
   822.7
   822.7
   823.0
   969.0
   823.0
   823.0
   822.8
   969.2
   969.2
   952.8
   969.2
   969.2
   969.2
   969.2
   969.2
   969.2
   969.2
   969.1
   961.3
   969.1
   969.1
   969.1
   969.1
   822.9
   969.1
   969.1
   969.1
   969.1
   822.8
   822.6
   969.2
   822.9
   917.2
   822.6
   869.9
   831.9
   969.1
   869.9
   928.5
   842.2
   822.8
   931.8
   926.1
   632.5
   775.9
   575.7
   621.4
   811.1
   531.3
   504.3
   515.9
   516.0
   455.9
   358.8
   629.3
   468.1
   419.3
   530.8
   644.7
   825.9
   822.8
   950.6
   822.8
   969.2
   822.8
   822.8
   822.8
   822.7
   969.2
   968.9
   969.1
   969.1
   969.1
   822.7
   822.8
   969.0
   969.0
   822.7
   822.7
   822.7
   822.7
   969.3
   969.3
   969.3
   822.8
   822.8
   822.8
   822.8
   822.8
   969.2
   969.2
   969.2
   963.0
   822.7
   969.2
   969.1
   969.1
   969.2
   963.0
   969.1
   822.8
   822.8
   969.1
   969.1
   969.1
   969.1
   969.2
   822.9
   822.9
   822.8
   822.7
   822.8
   822.9
   822.9
   969.1
   969.1
   969.1
   905.2
   765.5
   822.8
   522.0
   429.5
   462.4
   574.8
   520.0
   841.2
   822.8
   822.8
   969.0
   969.0
   969.0
   969.0
   969.1
   969.2
   969.1
   969.1
   969.1
   822.7
   822.7
   822.7
   822.7
   822.7
   822.8
   822.8
   969.2
   969.2
   969.3
   823.0
   969.2
   969.1
   969.3
   823.0
   969.1
   969.2
   969.1
   969.2
   969.2
   969.2
   969.2
   822.7
   822.7
   822.7
   822.8
   822.8
   822.8
   822.8
   969.0
   957.3
   822.9
   822.9
   822.9
   822.8
   822.8
   822.8
   822.8
   969.2
   969.2
   969.2
   969.2
   950.9
   969.2
   969.2
   969.1
   969.2
   969.1
   968.8
   969.1
   917.2
   968.8
   968.9
   968.8
   939.2
   895.7
   823.0
   969.1
   969.1
   969.1
   894.1
   903.9
   719.6
   879.8
   550.8
   657.9
   564.3
   479.2
   503.1
   869.8
   700.4
   920.5
   924.0
   822.8
   969.1
   956.2
   823.0
   969.2
   822.9
   822.8
   969.1
   939.7
   838.2
   939.7
   939.7
   939.7
   969.1
   822.8
   969.1
   969.2
   969.1
   969.2
   822.9
   969.2
   969.3
   823.0
   969.2
   823.0
   969.1
   969.2
   969.2
   969.2
   969.2
   822.9
   822.9
   963.0
   969.2
   969.0
   969.0
   895.9
   969.1
   822.7
   968.9
   968.9
   969.1
   969.2
   822.7
   822.9
   969.1
   969.2
   969.2
   969.1
   969.1
   969.1
   969.1
   947.2
   969.1
   969.1
   968.8
   969.1
   823.0
   969.2
   968.8
   909.9
   886.8
   823.0
   715.5
   883.5
   473.1
   384.5
   491.0
   460.7
   700.2
   601.9
   506.5
   737.4
   710.2
   684.3
   856.3
   872.6
   822.7
   822.8
   823.0
   822.8
   822.9
   822.9
   822.9
   822.9
   822.8
   838.2
   822.8
   969.1
   822.8
   822.8
   969.1
   969.1
   969.2
   969.3
   969.3
   969.2
   969.3
   969.0
   969.1
   871.3
   969.1
   969.2
   969.2
   969.2
   969.2
   963.0
   969.2
   969.0
   969.0
   822.8
   969.1
   969.0
   822.7
   822.7
   822.8
   822.8
   968.9
   969.0
   822.7
   822.7
   822.8
   969.1
   969.2
   969.2
   969.2
   822.9
   822.9
   822.8
   969.2
   969.2
   822.9
   822.8
   822.9
   969.2
   823.0
   747.0
   706.2
   543.7
   505.1
   544.3
   492.8
   563.9
   292.9
   439.7
   470.5
   416.0
   479.4
   626.8
   459.0
   483.7
   876.0
   822.7
   822.8
   822.9
   822.7
   823.0
   823.0
   969.1
   969.1
   822.8
   969.1
   968.7
   822.8
   969.3
   969.2
   933.6
   968.8
   969.3
   969.3
   969.2
   969.2
   969.2
   969.2
   969.2
   969.1
   969.2
   969.1
   822.9
   822.9
   944.7
   969.2
   969.1
   969.2
   969.1
   969.2
   969.1
   969.1
   969.1
   822.8
   969.1
   822.8
   822.9
   822.8
   822.8
   822.8
   969.1
   969.1
   958.2
   969.2
   969.1
   969.2
   958.2
   969.1
   969.2
   822.8
   969.2
   822.9
   822.8
   822.9
   822.9
   822.9
   746.4
   822.8
   750.7
   650.2
   662.7
   689.2
   632.5
   423.1
   599.6
   460.6
   578.2
   537.8
   717.0
   822.5
   968.9
   796.2
   822.7
   822.7
   969.3
   823.0
   969.3
   969.2
   969.1
   823.0
   969.1
   822.8
   969.1
   822.8
   969.1
   823.0
   969.1
   969.3
   969.3
   969.3
   969.1
   823.0
   823.0
   823.0
   823.0
   969.2
   969.2
   969.2
   969.2
   969.2
   822.9
   969.1
   969.1
   969.1
   822.8
   969.1
   969.2
   822.9
   969.1
   969.0
   969.1
   822.8
   822.9
   822.9
   822.9
   969.1
   969.1
   896.1
   822.8
   822.8
   952.6
   969.1
   969.1
   969.1
   969.1
   822.8
   822.8
   822.8
   969.1
   822.8
   969.1
   822.8
   822.8
   746.2
   644.1
   718.8
   730.3
   586.3
   424.9
   490.7
   460.9
   357.2
   463.3
   420.9
   486.3
   737.4
   614.5
   805.8
   803.1
   709.5
   969.0
   969.0
   822.5
   969.2
   969.2
   823.0
   823.0
   832.0
   822.8
   969.2
   969.2
   877.1
   877.1
   832.0
   969.1
   969.1
   969.1
   969.1
   823.0
   935.2
   823.0
   823.0
   969.1
   969.3
   969.3
   969.2
   969.2
   969.2
   822.9
   822.7
   969.1
   969.2
   822.9
   969.1
   969.1
   822.8
   822.8