# vtk DataFile Version 3.0
divides
ASCII
DATASET UNSTRUCTURED_GRID
POINTS       9199 float
        1767.187        1391.968         369.916
        5684.101        1071.372         367.735
        4503.620        1272.461         358.827
        7846.738        1252.549         413.941
        8181.261        1239.968         352.622
       11194.480        1418.576         370.519
       10796.306         510.633         249.893
       13877.115        1154.459         385.770
       11612.501        1462.211         411.109
       14484.331        1158.554         341.809
       17204.775        1889.275         436.199
       18368.909         989.216         352.601
       20719.383        1612.032         435.353
       21398.600         635.102         300.603
       20890.898        1651.361         392.977
       25029.148         907.944         366.020
       23777.340        1485.926         379.044
       26307.815         906.661         355.879
       27447.205        1289.958         360.512
       29928.008        1438.145         408.341
       30997.098         718.742         310.660
       34343.145        1419.235         390.293
       33469.979        1135.579         340.773
       33115.506         466.696         258.253
       36813.994        1202.142         423.867
       34690.637        1416.960         381.251
       38839.226         509.472         258.237
       38268.465        1188.847         347.778
       37288.779        1208.942         394.533
       42681.836        1110.801         386.571
       40759.240         937.011         355.715
       43330.437        1113.994         338.823
       45889.668         897.193         326.621
       47662.477        1197.775         404.490
       50447.523         804.034         345.674
       48518.221        1187.210         393.443
       49898.260        1456.562         381.838
       51865.901         802.150         354.221
       52905.759        1054.299         331.453
       55459.174        1145.699         389.735
       55864.268        1131.543         342.663
       59088.595         935.263         314.363
       61924.690        1219.224         402.074
       60495.426        1402.284         379.670
       63513.542        1332.327         409.814
       64347.839         515.541         238.752
       63826.075        1337.033         371.290
       67271.202        1246.085         360.031
       66783.072         542.797         262.756
       67718.142        1278.511         405.885
       70383.446        1736.555         411.560
       69908.705         469.667         260.927
       72135.038         901.121         310.187
       74669.465        1180.235         398.313
       72701.291         941.549         366.575
       75644.246         490.259         253.987
       75106.858        1157.098         348.538
       76245.173        1566.212         405.492
       78349.593        1407.432         442.038
       78643.108        1413.028         382.709
       79471.927         697.667         612.237
         878.362        1713.926         506.472
        1613.384        3118.784         547.019
         741.510        2644.491         551.856
        3350.932        1674.964         569.007
        4774.774        2373.226         542.308
        3404.628        3031.538         630.825
        4910.287        1607.342         427.937
        7712.679        2813.868         568.165
        9082.129        1908.328         520.033
        7465.884        2172.626         527.482
        7661.064        1629.344         438.145
        9132.306        2979.457         595.685
        8845.492        1394.745         465.138
       12404.881        1936.235         496.033
       12579.306        2329.442         517.630
       10605.815        2153.718         389.985
       16982.383        1914.526         515.145
       17254.608        1916.989         433.928
       16934.484        2021.873         540.194
       17300.771        2279.550         563.392
       20647.150        1796.233         431.496
       20816.708        2360.429         551.072
       21376.011        2253.412         586.522
       21209.593        1715.036         458.566
       20570.218        2079.342         499.677
       24245.952        2087.855         487.567
       23872.797        3124.250         607.369
       22780.913        2392.270         586.137
       23240.695        1671.654         453.891
       24193.168        1727.279         438.948
       27307.293        2557.475         548.038
       29108.173        2320.793         621.245
       29197.098        1610.057         616.592
       27037.807        1579.146         418.515
       30424.574        1715.765         466.036
       30515.416        1224.857         550.979
       30201.847        2174.074         544.195
       32075.096        1996.918         399.031
       36128.225        1565.985         597.053
       37370.254        1519.078         398.645
       37015.723        1956.385         497.563
       38984.653        1758.161         383.115
       38075.141        4854.610         568.959
       39169.507        2641.330         447.822
       41857.982        1761.270         443.254
       44585.549        1640.658         403.691
       42872.590        3106.094         422.461
       48544.815        2875.569         623.051
       50299.972        2140.710         407.138
       49282.316        1755.755         502.490
       54593.920        1534.705         531.197
       52297.217        2054.415         437.874
       52329.110        1505.674         385.021
       56799.156        2823.351         569.253
       56712.567        1562.787         489.724
       54154.984        2426.813         589.423
       60297.019        1526.514         404.374
       58036.012        3392.067         469.181
       61450.001        2483.972         688.619
       60276.789        1798.162         470.270
       60981.795        1550.696         533.360
       62592.205        2732.682         625.859
       63197.629        1656.153         472.923
       63894.096        2049.433         404.195
       67439.102        3441.473         550.548
       68123.427        1933.357         452.335
       68045.949        1459.627         447.037
       70027.191        2318.005         545.527
       70737.451        1828.844         481.975
       70835.851        2157.164         537.625
       70184.868        1962.957         418.302
       73968.858        1554.964         502.587
       73829.662        3711.715         614.390
       73714.821        2219.297         544.263
       76985.021        1674.845         650.669
       79210.579        1674.091         460.560
       78679.960        2403.826         523.905
         663.476        3787.464         506.908
        3686.822        3609.378         762.272
        3445.751        3224.715         609.694
        3142.186        3303.406         604.456
        5700.009        4279.064         555.815
        5477.178        3286.648         349.790
        9057.109        5408.605         717.580
       10697.772        4073.669         673.756
       10020.982        3315.093         552.409
        8855.840        3727.188         590.795
       10618.724        2589.103         416.420
       12105.086        2840.236         542.152
       16691.199        3313.628         520.642
       11879.292        4193.092         568.858
       17689.214        4065.185         439.606
       16136.276        3845.018         582.297
       17904.776        3081.088         432.521
       22402.980        4235.638         641.484
       21880.067        3532.843         549.864
       23493.415        3315.507         650.690
       21658.046        3332.376         516.076
       26862.661        3056.661         460.460
       28534.185        4304.289         709.760
       28400.425        3024.201         664.281
       27210.342        3671.287         549.251
       30796.938        3282.343         490.761
       30138.777        3953.370         591.922
       28789.396        4362.650         675.069
       33866.946        4796.921         474.945
       34027.237        2519.039         353.359
       32040.877        2294.965         411.607
       35602.356        2695.895         514.527
       35457.514        2316.603         540.681
       41348.607        4382.401         449.438
       41495.118        3761.755         436.476
       38154.225        4991.897         533.585
       43087.944        4364.740         444.507
       45216.608        2943.404         477.544
       44557.703        2295.919         442.237
       46454.478        4461.239         542.150
       47864.300        3117.289         543.293
       44922.064        4913.901         596.151
       47193.325        2216.154         493.148
       47935.867        3255.165         521.056
       48399.134        3148.697         530.908
       48160.108        3768.883         664.729
       48470.995        4271.432         542.426
       52640.550        2974.745         441.044
       55484.273        3349.458         680.239
       52622.605        3529.807         531.556
       56235.531        3509.265         574.517
       54904.648        4199.556         816.802
       56113.582        3926.973         675.115
       61764.013        3163.905         522.373
       62212.092        3444.218         500.034
       62425.868        3117.303         500.570
       61699.959        3435.562         579.323
       65586.112        4210.132         519.145
       65936.520        3144.987         508.799
       67027.910        3708.706         733.199
       67384.697        3437.504         568.622
       67440.659        3450.903         547.062
       67480.994        3936.769         733.715
       67559.270        3576.498         613.155
[...]
POINT_DATA       9199
SCALARS height float 1
LOOKUP_TABLE default
   369.9
   367.7
   358.8
   413.9
   352.6
   370.5
   249.9
   385.8
   411.1
   341.8
   436.2
   352.6
   435.4
   300.6
   393.0
   366.0
   379.0
   355.9
   360.5
   408.3
   310.7
   390.3
   340.8
   258.3
   423.9
   381.3
   258.2
   347.8
   394.5
   386.6
   355.7
   338.8
   326.6
   404.5
   345.7
   393.4
   381.8
   354.2
   331.5
   389.7
   342.7
   314.4
   402.1
   379.7
   409.8
   238.8
   371.3
   360.0
   262.8
   405.9
   411.6
   260.9
   310.2
   398.3
   366.6
   254.0
   348.5
   405.5
   442.0
   382.7
   612.2
   506.5
   547.0
   551.9
   569.0
   542.3
   630.8
   427.9
   568.2
   520.0
   527.5
   438.1
   595.7
   465.1
   496.0
   517.6
   390.0
   515.1
   433.9
   540.2
   563.4
   431.5
   551.1
   586.5
   458.6
   499.7
   487.6
   607.4
   586.1
   453.9
   438.9
   548.0
   621.2
   616.6
   418.5
   466.0
   551.0
   544.2
   399.0
   597.1
   398.6
   497.6
   383.1
   569.0
   447.8
   443.3
   403.7
   422.5
   623.1
   407.1
   502.5
   531.2
   437.9
   385.0
   569.3
   489.7
   589.4
   404.4
   469.2
   688.6
   470.3
   533.4
   625.9
   472.9
   404.2
   550.5
   452.3
   447.0
   545.5
   482.0
   537.6
   418.3
   502.6
   614.4
   544.3
   650.7
   460.6
   523.9
   506.9
   762.3
   609.7
   604.5
   555.8
   349.8
   717.6
   673.8
   552.4
   590.8
   416.4
   542.2
   520.6
   568.9
   439.6
   582.3
   432.5
   641.5
   549.9
   650.7
   516.1
   460.5
   709.8
   664.3
   549.3
   490.8
   591.9
   675.1
   474.9
   353.4
   411.6
   514.5
   540.7
   449.4
   436.5
   533.6
   444.5
   477.5
   442.2
   542.2
   543.3
   596.2
   493.1
   521.1
   530.9
   664.7
   542.4
   441.0
   680.2
   531.6
   574.5
   816.8
   675.1
   522.4
   500.0
   500.6
   579.3
   519.1
   508.8
   733.2
   568.6
   547.1
   733.7
   613.2
   586.8
   549.0
   732.3
   673.7
   630.0
   651.5
   682.4
   580.1
   422.9
   436.8
   629.0
   432.7
   220.5
   573.1
   469.5
   642.5
   576.8
   744.6
   763.5
   659.6
   585.6
   582.5
   764.2
   689.4
   515.7
   418.8
   544.9
   464.6
   522.5
   568.2
   677.3
   705.7
   635.8
   615.7
   549.9
   667.5
   627.4
   637.0
   875.3
   481.0
   469.8
   716.2
   579.0
   597.3
   604.0
   625.8
   656.4
   615.7
   569.2
   747.3
   725.9
   531.7
   665.1
   544.1
   440.2
   457.7
   678.1
   558.7
   773.4
   579.3
   562.2
   657.3
   586.7
   696.1
   480.2
   574.1
   861.4
   686.1
   737.0
   734.6
   575.9
   664.6
   785.3
   446.3
   525.0
   519.0
   530.5
   688.9
   654.4
   738.5
   656.5
   622.3
   561.7
   722.6
   813.0
   830.8
   866.4
   491.6
   533.7
   453.0
   628.4
   817.1
   816.2
   642.6
   703.5
   614.5
   631.9
   722.9
   546.7
   643.2
   670.7
   587.7
   560.0
   581.2
   423.7
   497.1
   547.1
   697.1
   672.2
   632.9
   769.8
   596.3
   583.0
   633.1
   831.7
   727.0
   684.4
   731.5
   680.4
   790.0
   830.5
   315.4
   418.5
   625.2
   543.7
   676.4
   522.3
   700.7
   660.0
   700.9
   562.3
   628.1
   722.5
   817.6
   575.1
   565.3
   608.6
   871.0
   837.7
   705.4
   705.5
   655.3
   670.4
   452.9
   527.3
   544.3
   937.7
   803.2
   729.7
   469.4
   439.7
   529.8
   528.1
   617.3
   622.7
   648.5
   784.2
   712.0
   893.7
   720.7
   692.7
   876.9
   660.7
   832.7
   756.6
   839.7
   793.2
   606.2
   828.4
   755.1
   837.3
   712.7
   769.2
   822.7
   792.4
   430.0
   591.9
   568.1
   437.2
   481.8
   438.2
   572.0
   547.2
   804.9
   643.3
   815.6
   853.7
   824.0
   753.6
   662.4
   809.0
   760.4
   816.5
   645.9
   853.1
   879.1
   731.0
   713.5
   598.5
   606.2
   773.5
   772.7
   633.3
   608.5
   784.0
   556.6
   646.8
   768.3
   530.6
   768.9
   806.5
   776.9
   854.6
   837.8
   547.8
   669.0
   429.0
   595.2
   675.5
   518.1
   773.8
   636.3
   617.2
   571.3
   626.3
   589.8
   830.2
   844.7
   527.5
   576.7
   828.1
   741.1
   915.0
   924.1
   651.3
   736.3
   551.6
   693.1
   607.3
   813.5
   852.5
   699.3
   600.0
   749.3
   533.8
   520.6
   795.0
   728.7
   827.7
   580.1
   620.7
   632.6
  1071.4
   769.4
   955.5
   960.3
   950.2
  1050.3
   889.4
   945.9
  1043.8
  1043.0
   910.2
   850.3
   853.7
   697.3
   797.8
   742.5
   823.3
   607.3
   510.4
   566.4
   529.8
   439.4
   391.4
   386.0
   498.4
   493.6
   434.0
   461.4
   613.6
   554.9
   834.3
   712.8
   885.4
   782.4
   761.3
   966.5
   739.8
   880.8
   727.6
   621.8
   789.6
   668.0
   564.3
   602.0
   900.0
  1041.3
  1063.9
   842.2
   988.7
   937.5
   696.5
   782.4
   822.0
  1104.9
  1016.1
   910.8
   717.4
   821.1
   643.5
   655.6
   863.1
   896.4
   690.1
   694.0
   864.3
   888.7
   639.3
   797.4
   618.8
   852.8
  1051.7
  1119.1
  1006.0
   538.9
   916.5
   756.7
   874.9
   741.7
   921.7
  1030.3
  1144.9
   612.3
   427.1
   846.3
   791.4
   979.9
   979.8
   706.0
   732.8
   867.6
   796.8
  1002.7
  1006.9
  1002.3
   945.0
  1076.7
  1146.2
   949.3
   884.4
   909.3
  1102.3
   740.6
   696.4
   746.8
   682.8
   546.5
   554.5
   594.6
   527.2
   672.0
   566.5
   749.9
   731.4
   649.7
   734.0
   752.3
   674.5
   748.9
   753.4
  1080.7
  1135.9
   861.0
   899.8
   878.3
   985.7
   771.6
  1039.1
  1004.7
  1061.8
   777.1
   757.1
   608.9
   772.8
   919.2
   906.5
   750.5
   657.9
   951.7
   613.7
   529.3
   915.0
   952.0
  1002.7
  1044.2
   937.7
   987.3
   742.5
   936.3
   743.1
   729.5
   655.3
   911.5
   886.1
   582.5
   682.4
   931.0
   740.4
   618.9
   924.5
   995.6
  1027.9
   921.2
  1186.2
   961.3
  1186.2
   999.9
   535.6
   690.4
   933.9
  1020.5
  1196.5
  1085.5
   853.8
   888.0
   840.9
   589.6
   682.2
   519.8
   718.2
   791.1
   910.2
   674.7
   909.3
   925.9
  1127.0
  1288.9
  1017.4
  1060.5
   736.0
   880.3
   655.6
   837.9
   834.5
   743.5
   628.5
   760.2
   705.6
   615.7
   499.7
   436.0
   548.6
   278.8
   539.6
   691.0
   819.9
   903.7
   745.2
   809.2
   749.2
   772.5
   884.6
   751.2
   896.8
   889.8
   886.0
   869.8
  1027.9
   810.8
  1119.9
  1260.4
  1025.1
  1060.3
  1035.9
  1018.1
   930.8
   863.7
   754.6
   785.9
   952.5
  1109.6
  1105.7
  1154.9
  1235.1
   752.2
   600.5
   626.1
   577.0
   618.1
   598.3
   670.3
   849.4
   894.1
   784.2
  1020.3
   874.0
   981.6
   812.0
  1112.6
   824.5
  1065.1
   826.1
   961.1
   715.1
   939.2
   880.2
   776.6
   927.6
  1168.6
  1076.7
   629.0
   567.8
   927.2
   738.0
   922.5
  1200.0
  1178.3
  1173.4
  1049.6
  1102.7
  1235.4
   759.8
   666.3
   482.6
   547.1
   540.5
   506.8
   400.1
   361.2
   358.5
   485.6
   479.6
   572.9
   507.7
   425.3
   401.5
   619.9
   485.3
   461.1
   685.2
   762.8
   523.9
   582.9
   632.5
   830.5
   756.0
   647.7
   972.5
  1079.2
  1095.4
  1267.0
  1415.0
  1371.2
  1332.4
   911.3
  1021.5
  1282.5
  1198.3
  1476.9
  1371.7
   806.0
   688.4
   826.9
  1029.4
   711.6
  1033.0
   911.6
   884.6
   700.1
  1159.5
  1330.3
  1246.0
  1313.1
  1080.2
  1284.4
  1034.3
  1005.6
  1184.5
  1034.3
  1331.8
  1316.1
  1039.9
  1294.0
  1398.7
  1239.7
  1200.1
  1390.6
  1204.4
   914.1
  1076.1
  1059.5
  1096.4
  1163.8
  1017.0
   906.9
  1098.1
   800.6
   832.7
   683.1
  1226.4
  1341.3
  1300.7
  1068.9
  1104.8
  1137.1
  1215.5
  1035.6
  1059.9
  1036.9
  1002.5
   914.9
   638.5
   912.4
   900.9
   811.1
   634.7
   694.8
   647.1
   635.1
   723.1
   568.2
   661.8
   623.1
   451.1
   412.3
   443.5
   474.5
   535.6
   702.3
  1197.6
  1345.7
  1289.6
  1346.1
  1249.7
  1399.0
  1370.1
  1268.0
  1381.3
  1197.6
  1516.5
  1585.2
  1176.0
  1215.8
  1226.6
   941.4
  1143.3
  1263.0
  1114.0
  1131.2
   834.7
   925.7
   866.2
   786.9
  1079.8
  1097.7
  1525.3
  1298.4
  1454.8
  1395.8
  1284.6
  1391.0
  1183.0
  1424.7
  1589.7
  1587.2
  1651.4
  1421.7
  1625.2
  1237.1
  1097.9
  1337.2
  1102.3
  1356.2
  1028.9
  1008.7
   855.1
  1170.1
  1188.9
   810.2
   818.1
   842.0
  1011.6
  1182.2
  1335.5
  1343.6
   834.3
  1129.8
  1114.7
  1143.1
   933.2
  1022.2
   894.9
   985.3
   806.9
   741.2
   773.3
   721.9
   557.8
   634.4
   506.2
   436.4
   656.6
   538.8
   462.7
   370.8
   409.8
   432.2
   587.0
   670.3
   638.1
   554.8
   781.1
   558.7
   718.9
   601.5
   641.2
   539.4
   896.5
   703.4
   780.4
   845.9
   721.1
   933.5
   919.6
   825.9
   929.3
  1005.3
  1006.0
  1210.7
  1161.8
  1239.4
  1508.3
  1503.6
  1327.7
  1490.4
  1736.2
  1645.2
  1726.6
  1584.7
  1695.7
  1729.4
  1739.6
  1681.2
  1526.3
  1302.6
  1210.5
  1346.2
  1227.5
  1516.4
  1472.8
  1309.3
  1140.3
  1183.0
  1238.8
  1247.0
  1432.4
  1461.2
  1472.2
  1526.7
  1563.4
  1704.9
  1722.7
  1670.6
  1450.6
  1699.0
  1622.9
  1707.5
  1643.2
  1636.2
  1505.9
  1402.2
  1380.4
  1357.5
  1363.1
  1279.5
  1234.4
  1046.4
  1007.5
  1106.5
  1136.1
  1332.1
  1358.0
  1360.2
   813.6
   681.5
   622.1
   641.6
   601.0
   842.1
   500.6
   709.0
   490.3
   675.8
   534.0
   443.7
   539.7
   463.2
   624.1
   527.5
   526.7
   435.7
   475.0
   552.1
   685.6
   490.7
   667.1
   866.4
   600.8
   925.5
   868.6
   676.5
   872.1
   640.0
   940.7
  1143.4
   937.9
  1577.1
  1384.1
  1506.9
  1822.4
  1689.1
  1644.3
  1510.2
  1679.2
  1679.7
  1690.9
  1680.3
  1744.6
  1746.7
  1662.0
  1742.5
  1650.9
  1662.6
  1510.0
  1491.2
  1633.0
  1631.3
  1479.2
  1719.3
  1724.7
  1727.2
  1664.9
  1722.9
  1784.5
  1757.0
  1786.0
  1722.7
  1722.7
  1722.7
  1722.7
  1722.6
  1730.9
  1869.0
  1728.1
  1722.9
  1608.0
  1655.5
  1601.3
  1652.8
  1644.6
  1608.4
  1599.3
  1607.5
  1463.7
  1481.3
  1330.2
  1378.4
  1371.9
  1394.6
  1032.8
   957.1
   990.8
   800.8
   757.7
   842.9
  1077.0
   612.2
   428.4
   521.7
   730.4
   641.4
   657.1
   444.9
   456.6
   619.8
   399.8
   468.8
   426.0
   494.0
   587.7
   608.8
   616.4
   807.3
   802.0
   702.4
  1380.6
  1636.3
  1822.8
  1722.9
  1821.3
  1722.9
  1722.9
  1793.6
  1869.0
  1760.1
  1828.5
  1869.1
  1824.8
  1827.5
  1657.4
  1788.1
  1787.5
  1782.8
  1659.9
  1791.3
  1722.9
  1758.0
  1722.6
  1722.6
  1722.8
  1722.8
  1722.6
  1722.9
  1722.8
  1802.9
  1802.9
  1722.9
  1770.3
  1770.3
  1770.3
  1796.1
  1800.9
  1650.4
  1653.3
  1628.1
  1635.8
  1486.9
  1617.6
  1415.2
  1244.2
  1076.7
  1243.2
   617.0
   714.3
   763.1
   631.1
   673.4
   875.8
   705.2
   731.9
   724.6
   681.1
   589.1
   687.5
   617.5
   690.8
   527.3
   481.1
   603.4
   471.1
   306.9
   477.8
   575.5
   624.9
   396.6
   464.8
   546.6
   581.5
   444.5
   600.2
   610.0
   560.4
   731.5
   675.7
   718.4
   708.7
   697.7
   787.2
  1019.8
  1014.9
  1062.3
   957.8
   953.2
   969.8
  1631.8
  1734.6
  1742.5
  1468.5
  1828.6
  1826.8
  1827.7
  1869.1
  1869.0
  1869.0
  1826.7
  1760.1
  1822.8
  1826.9
  1824.0
  1869.2
  1668.2
  1793.9
  1869.2
  1722.8
  1722.6
  1722.6
  1722.6
  1722.7
  1722.6
  1722.6
  1722.6
  1722.6
  1869.1
  1722.9
  1869.0
  1722.9
  1722.6
  1868.9
  1722.9
  1868.9
  1851.9
  1727.4
  1700.4
  1657.1
  1719.3
  1109.4
  1074.2
  1074.6
   834.2
  1044.4
  1036.8
  1059.4
   781.6
   998.8
  1070.0
   956.5
   895.5
   965.2
   834.9
   838.1
   838.5
   717.2
   876.8
   743.1
   675.1
   461.9
   542.0
   427.7
   554.9
   538.8
   463.3
   645.1
   466.9
   673.6
   763.8
   782.6
   815.2
   953.4
   972.6
   856.4
   928.2
  1123.5
  1018.4
   996.7
   930.3
   984.4
  1090.2
  1166.9
  1301.6
  1221.8
  1053.5
  1406.7
  1195.0
  1430.8
  1254.3
  1820.0
  1642.1
  1833.9
  1740.3
  1723.1
  1869.1
  1817.9
  1869.1
  1723.1
  1869.0
  1760.1
  1869.1
  1722.8
  1869.1
  1869.1
  1793.9
  1752.0
  1793.9
  1793.9
  1869.2
  1869.0
  1722.9
  1722.7
  1722.7
  1722.7
  1869.1
  1869.1
  1722.9
  1869.1
  1869.1
  1722.9
  1722.9
  1722.9
  1869.1
  1869.1
  1722.7
  1750.6
  1799.1
  1851.3
  1722.6
  1663.6
  1798.0
  1536.3
  1587.3
  1600.0
   990.2
  1204.4
  1198.7
  1145.6
   907.5
  1115.3
   768.0
   859.9
   669.1
   840.6
   572.9
   650.2
   699.8
   494.2
   484.2
   607.6
   434.1
   605.3
   450.3
   474.7
   448.2
   668.5
   667.2
   652.2
   740.3
   735.6
   835.1
   980.4
   918.2
   941.8
   995.4
   742.6
  1018.3
   981.7
  1269.9
  1182.1
  1557.6
  1548.8
  1295.3
  1801.8
  1611.8
  1697.8
  1723.1
  1723.1
  1722.9
  1722.8
  1783.1
  1869.1
  1752.0
  1752.0
  1747.8
  1869.2
  1869.2
  1869.1
  1722.9
  1869.0
  1869.1
  1869.0
  1869.1
  1869.1
  1856.9
  1869.0
  1869.1
  1869.0
  1869.0
  1775.1
  1868.9
  1722.6
  1775.1
  1722.6
  1722.6
  1595.9
  1549.4
  1746.0
  1694.0
  1471.1
  1237.6
  1147.5
  1220.3
   783.7
   791.0
   608.0
   482.1
   499.5
   554.6
   352.1
   568.9
   445.2
   511.3
   530.3
   617.2
   539.1
   749.7
   517.4
   726.7
   624.2
   793.6
   729.8
   557.8
   658.1
   738.1
   718.6
   809.9
   975.6
   999.6
  1168.3
  1296.7
  1448.8
  1444.9
  1272.8
  1654.5
  1748.8
  1799.5
  1750.9
  1747.8
  1722.9
  1747.8
  1747.8
  1869.1
  1869.0
  1869.2
  1722.9
  1869.2
  1722.8
  1869.1
  1722.7
  1869.1
  1869.1
  1722.7
  1869.1
  1722.7
  1869.1
  1722.7
  1722.8
  1775.1
  1775.1
  1751.9
  1868.9
  1706.6
  1722.6
  1492.3
  1248.6
  1368.2
  1023.1
   946.7
  1062.1
  1135.1
  1098.0
   937.6
  1066.2
   823.1
   886.1
   822.9
   732.2
   704.0
   782.6
   689.3
   587.5
   730.4
   645.3
   680.5
   687.5
   543.4
   478.4
   616.1
   724.4
   448.2
   572.3
   693.6
   603.6
   652.3
   480.8
   468.6
   610.8
   536.4
   514.4
   623.3
   536.5
   711.8
   790.6
  1296.8
  1217.4
  1745.2
  1594.6
  1722.9
  1722.9
  1722.9
  1869.1
  1869.0
  1869.1
  1869.0
  1869.1
  1723.0
  1723.0
  1723.0
  1869.1
  1869.1
  1722.9
  1722.9
  1722.9
  1722.9
  1722.8
  1722.8
  1722.7
  1722.7
  1722.7
  1722.7
  1722.6
  1869.1
  1869.0
  1869.1
  1722.6
  1722.6
  1722.6
  1719.1
  1462.6
  1689.0
  1721.8
  1580.4
  1237.1
  1382.6
   873.9
  1110.4
   998.6
  1002.3
  1040.7
   860.1
  1007.0
   589.0
   911.0
   806.9
   652.3
   709.9
   480.7
   670.2
   720.4
   602.5
   849.2
   461.7
   432.3
   520.8
   385.0
   566.0
   496.3
   410.4
   572.8
   426.2
   419.2
   443.2
   378.1
   477.6
   541.6
   669.7
   540.8
   613.5
   682.1
   715.7
   589.9
   655.2
   644.5
   819.6
   691.0
   792.2
  1030.3
   877.0
   951.8
   789.1
   976.0
  1115.1
  1024.7
  1130.4
  1098.5
  1556.8
  1537.9
  1581.3
  1541.4
  1825.3
  1827.4
  1826.9
  1827.5
  1869.1
  1869.1
  1869.1
  1869.1
  1869.1
  1723.0
  1869.3
  1869.1
  1869.2
  1869.1
  1723.0
  1856.3
  1869.0
  1869.0
  1869.0
  1722.8
  1869.1
  1869.0
  1869.2
  1869.1
  1869.2
  1869.1
  1722.6
  1722.6
  1722.6
  1722.6
  1865.5
  1865.5
  1708.0
  1860.7
  1854.0
  1583.1
  1703.0
   959.9
   953.5
   847.5
   658.6
   660.3
   624.2
   582.5
   616.4
   496.9
   487.9
   674.0
   686.5
   474.0
   620.4
   496.8
   643.7
   582.4
   476.3
   357.9
   499.9
   591.8
   721.1
   653.4
   677.1
  1083.9
  1040.7
  1206.9
   909.5
  1023.7
  1300.3
  1542.1
  1312.3
  1685.4
  1841.1
  1722.8
  1838.7
  1868.0
  1722.8
  1722.8
  1869.1
  1869.1
  1869.1
  1869.1
  1869.1
  1847.1
  1869.3
  1722.9
  1723.0
  1723.0
  1869.1
  1722.8
  1722.8
  1722.8
  1836.0
  1869.1
  1869.0
  1722.9
  1866.2
  1869.1
  1722.8
  1866.2
  1722.9
  1722.9
  1854.3
  1309.2
  1327.7
  1305.4
  1100.1
  1090.6
  1077.8
  1023.3
  1198.6
   876.0
   872.8
   911.3
   863.3
   814.0
   849.0
   815.3
   583.5
   436.1
   414.5
   655.8
   454.4
   553.2
   452.3
   319.8
   507.8
   450.9
   394.8
   569.5
   585.3
   664.7
   634.0
   666.5
   468.0
   768.9
   739.9
   738.9
   610.3
   667.9
   732.6
   745.3
   758.3
   853.5
   875.0
  1298.3
  1838.4
  1728.9
  1837.3
  1673.0
  1685.8
  1722.7
  1722.8
  1722.7
  1869.0
  1722.7
  1722.8
  1723.0
  1869.1
  1869.0
  1722.8
  1723.0
  1722.8
  1722.8
  1869.1
  1869.1
  1869.1
  1722.9
  1869.2
  1869.2
  1836.0
  1836.0
  1869.2
  1869.2
  1863.6
  1866.2
  1866.2
  1866.2
  1869.1
  1861.0
  1869.1
  1869.1
  1771.9
  1860.5
  1860.7
  1460.8
  1574.7
  1583.1
  1479.4
  1573.6
  1156.6
  1232.4
  1043.6
   819.8
  1003.2
   908.4
   985.5
   611.7
   633.0
   890.5
   694.6
   736.8
   423.2
   474.5
   518.1
   415.3
   566.0
   481.4
   582.0
   561.6
   579.1
   629.0
   756.5
   580.5
   632.0
   786.2
   819.0
   693.5
   796.1
   847.8
   994.5
   818.8
  1069.9
   745.2
  1019.9
   947.7
   957.4
  1422.3
  1161.4
  1417.7
  1279.9
  1662.5
  1441.3
  1785.2
  1722.7
  1722.7
  1722.7
  1723.0
  1869.0
  1723.0
  1723.0
  1722.8
  1869.1
  1869.2
  1852.8
  1869.2
  1869.2
  1869.2
  1869.2
  1869.2
  1869.2
  1869.1
  1869.1
  1861.3
  1794.6
  1869.1
  1869.1
  1770.9
  1722.9
  1764.9
  1727.5
  1766.1
  1723.9
  1563.6
  1718.7
  1201.4
  1172.5
  1001.2
   950.9
   764.2
   731.2
   698.9
   684.9
   570.8
   559.8
   553.4
   690.6
   445.1
   649.2
   686.0
   480.1
   520.7
   589.3
   515.6
   413.2
   465.7
   575.8
   456.9
   534.5
   425.8
   385.9
   456.0
   574.1
   463.9
   515.5
   514.4
   777.2
   691.6
   550.1
   688.1
   730.5
   561.4
   873.8
   746.9
  1423.6
  1146.2
  1741.0
  1785.5
  1789.4
  1774.5
  1751.1
  1793.2
  1722.7
  1722.7
  1722.7
  1722.7
  1869.3
  1869.3
  1869.3
  1722.8
  1722.8
  1722.8
  1722.8
  1722.8
  1869.2
  1869.2
  1869.2
  1784.1
  1722.7
  1869.2
  1869.1
  1869.1
  1869.1
  1784.1
  1869.1
  1722.8
  1722.8
  1869.1
  1794.6
  1794.6
  1794.6
  1869.2
  1722.9
  1707.8
  1689.6
  1722.9
  1288.5
  1492.8
  1300.8
  1564.2
  1497.3
   978.5
   783.8
   947.6
   981.6
   927.4
   707.5
   943.6
   841.7
   788.3
   787.3
   564.8
   587.1
   833.5
   867.5
   872.8
   803.1
   840.3
   572.3
   508.3
   413.7
   469.3
   493.3
   430.3
   362.0
   564.1
   508.2
   571.8
   467.3
   915.6
   856.8
   864.7
  1369.1
  1415.2
  1141.0
  1695.3
  1777.4
  1777.4
  1624.9
  1793.2
  1793.2
  1869.3
  1723.0
  1869.1
  1869.1
  1869.1
  1723.0
  1869.1
  1869.2
  1869.1
  1869.1
  1869.2
  1869.2
  1869.2
  1722.7
  1722.7
  1722.8
  1722.8
  1722.8
  1722.8
  1722.8
  1869.0
  1857.3
  1722.9
  1722.9
  1722.9
  1722.8
  1722.8
  1722.8
  1722.8
  1869.2
  1869.2
  1461.3
  1639.5
  1453.9
  1642.5
  1652.2
  1660.8
  1650.5
  1164.7
  1295.2
  1020.7
  1259.9
  1234.6
  1151.6
  1040.1
  1092.5
   858.4
   995.5
   978.1
   731.0
   827.0
   872.7
   643.9
   702.5
   742.6
   505.9
   530.8
   585.3
   439.7
   514.4
   715.4
   483.8
   691.8
   570.1
   504.5
   665.0
   570.2
   674.5
   707.5
   651.6
   599.4
   836.1
   808.7
   585.7
   807.4
   608.4
   625.8
   606.6
   729.3
   677.3
   881.1
   993.5
   825.1
  1127.2
   940.0
  1122.6
  1477.0
  1631.9
  1653.1
  1475.5
  1869.2
  1722.9
  1641.3
  1869.2
  1723.0
  1869.2
  1723.0
  1869.1
  1869.2
  1869.2
  1869.2
  1869.2
  1722.9
  1722.9
  1784.1
  1869.2
  1869.1
  1869.0
  1790.5
  1869.1
  1722.7
  1868.9
  1868.9
  1869.2
  1800.9
  1722.7
  1722.9
  1722.9
  1722.9
  1599.8
  1771.7
  1771.8
  1064.4
  1186.1
   816.5
   863.8
  1052.8
   782.9
   625.5
   729.1
   897.5
   595.6
   645.5
   572.0
   683.4
   778.8
   711.1
   714.1
   706.4
   433.7
   378.4
   486.8
   485.6
   751.4
   621.4
   596.0
   720.7
   534.5
   682.4
   546.9
   720.7
   735.6
   617.7
   616.3
   589.5
   867.5
   811.1
   919.7
   804.7
   879.2
   685.1
   927.0
   872.3
   823.1
   654.7
   791.4
   871.4
   962.5
  1477.0
  1338.9
  1450.6
  1625.9
  1647.5
  1648.2
  1869.3
  1869.3
  1869.3
  1869.3
  1869.0
  1869.1
  1757.1
  1869.1
  1869.2
  1869.2
  1869.2
  1869.1
  1784.1
  1869.1
  1869.0
  1869.1
  1722.8
  1869.1
  1869.0
  1722.7
  1722.7
  1722.7
  1722.8
  1868.9
  1869.0
  1722.7
  1722.7
  1722.8
  1797.1
  1798.5
  1190.0
  1357.3
  1421.3
   979.8
  1075.3
   883.4
   789.8
   775.2
   603.8
   510.3
   484.6
   507.8
   498.8
   527.1
   588.3
   721.8
   535.0
   502.6
   588.7
   526.9
   567.0
   307.6