# vtk DataFile Version 3.0
divides
ASCII
DATASET UNSTRUCTURED_GRID
POINTS       7777 float
        1762.672        1354.374         365.479
        5709.934        1102.677         371.423
        4509.992        1245.106         355.311
        7810.413        1221.100         409.478
        8174.790        1195.703         346.872
       11194.323        1458.834         373.501
       10795.151         512.093         250.608
       13953.426        1236.249         394.351
       11585.342        1495.653         412.912
       14488.590        1217.075         348.072
       18433.320        1072.082         363.322
       17272.897        1671.641         395.577
       20613.468        1499.658         423.349
       21363.355         597.708         291.639
       20882.759        1503.506         378.489
       25082.070         954.634         372.439
       23794.740        1369.809         366.527
       26260.387         954.858         362.682
       27436.471        1233.946         353.321
       29983.868        1509.363         414.164
       30856.849         549.920         271.767
       30077.917        1554.147         386.558
       34471.536        1664.434         412.329
       33447.734        1329.864         363.017
       33094.017         487.396         269.258
       34598.040        1674.548         404.531
       37071.240        1281.156         359.761
       38845.686         516.965         262.035
       38263.336        1235.203         352.539
       37258.130        1242.286         397.195
       40649.545        1059.264         372.763
       41801.073        1548.723         386.340
       43346.708        1252.963         355.371
       45872.502         927.372         331.022
       46797.493        1254.628         403.884
       50566.922         917.307         364.543
       49146.280         793.935         308.462
       51735.407         914.211         372.670
       52912.794        1124.431         340.254
       55452.067        1138.011         387.252
       55865.602        1120.421         340.406
       59078.484        1020.145         327.072
       61868.353        1158.151         393.077
       60525.253        1264.957         362.948
       63626.017        1466.900         423.837
       64358.292         531.033         245.926
       63804.627        1501.909         388.871
       67270.418        1232.356         357.718
       66789.635         534.253         258.620
       67727.501        1267.450         403.854
       70384.136        1664.158         404.086
       69892.178         485.467         269.296
       72139.154         928.581         314.482
       74686.115        1198.609         399.461
       72679.141         964.754         369.347
       75646.976         493.272         255.547
       75105.068        1179.336         350.639
       76242.818        1572.861         404.636
       78320.213        1380.748         437.118
       78636.593        1375.157         377.302
       79482.288         683.979         579.763
         861.116        1711.689         485.111
        1597.739        3215.651         527.418
         723.339        2658.103         525.229
        3394.659        1670.360         541.759
        4941.418        2773.526         565.398
        3533.002        2848.544         584.213
        4952.114        1611.464         429.843
        7423.760        3497.215         583.816
        9275.732        1981.728         515.595
        7253.800        2335.067         526.384
        7601.763        1633.852         438.044
        9279.117        3206.651         575.753
        8881.904        1383.399         456.883
       12443.934        1934.838         508.270
       12717.602        2364.322         534.120
       10594.054        2157.209         413.132
       16671.290        1907.594         510.815
       17560.589        1887.412         428.154
       16618.853        2132.904         544.855
       17383.020        2666.436         575.010
       20450.822        1791.076         435.605
       20684.936        3250.695         603.848
       21481.743        2353.331         545.343
       21327.322        1681.724         434.189
       20371.128        2246.645         528.299
       24541.773        2257.380         502.238
       22620.793        2493.240         539.167
       23148.249        1648.800         432.857
       24338.227        1706.655         437.669
       27254.328        2810.256         538.777
       29476.877        1611.188         589.268
       29784.296        2623.846         614.778
       26950.782        1574.682         422.887
       30403.190        1709.677         498.003
       30221.431        2254.641         616.527
       32108.991        1996.867         449.896
       35541.450        1657.303         649.676
       37369.320        1518.718         418.282
       37006.988        2012.825         539.540
       39052.386        1751.353         414.461
       38079.733        4740.645         566.941
       39550.880        2956.519         503.990
       41242.252        2479.220         557.009
       42195.842        2984.232         588.044
       42401.490        2271.523         535.386
       42304.926        1859.190         445.593
       41401.517        1801.424         437.448
       44431.126        1670.656         435.840
       46598.548        1727.014         533.998
       47005.098        1380.203         475.424
       46603.229        1334.470         420.088
       49751.621        1622.537         535.116
       49991.216        1825.960         424.291
       50177.790        2024.430         525.133
       49716.673        1803.225         517.449
       49431.328        2228.381         676.105
       54389.838        1535.168         533.169
       52055.001        2244.615         506.536
       52318.244        1505.105         425.070
       57345.952        3541.768         599.910
       56926.641        1570.156         503.986
       53615.972        2717.167         598.675
       60085.361        1545.372         415.280
       57877.099        3679.293         519.382
       61297.223        2331.997         587.186
       60103.182        2053.827         518.166
       61030.393        1554.485         481.333
       63196.534        2187.230         609.002
       63439.835        1656.311         461.330
       63885.741        2019.477         473.609
       68352.377        1978.503         473.461
       68118.569        1429.242         449.223
       69672.426        2716.088         615.243
       70818.566        1808.010         478.943
       70930.701        2206.651         543.505
       70020.510        1998.648         447.682
       73963.445        1554.636         504.917
       73708.789        3915.484         611.840
       73612.947        2264.242         549.082
       76855.952        1671.261         618.234
       79218.704        1673.329         443.527
       78679.486        2423.576         511.008
         661.068        3785.331         501.805
        4494.479        4377.439         743.115
        3927.412        3245.912         662.277
        2926.710        3443.945         570.704
        5644.087        4177.569         644.988
        5368.877        3291.280         426.450
        8883.571        6131.051         778.300
        8443.767        4939.074         749.351
        9929.582        3357.045         597.735
       10973.689        4193.918         743.566
        8886.123        3719.031         662.689
       10645.843        2604.664         456.280
       11979.079        2840.210         569.743
       16880.115        3356.482         555.458
       11587.952        4337.551         599.254
       17723.880        4216.869         558.596
       16145.399        3842.884         623.254
       17843.924        3157.605         460.279
       22629.715        5059.075         651.804
       21726.546        4230.239         604.959
       23433.648        3297.277         610.079
       21303.228        3779.625         587.567
       24168.809        3352.033         526.680
       26952.905        3070.442         515.304
       28651.465        4408.923         761.251
       28277.018        3032.656         721.187
       27221.008        4002.255         707.952
       31045.646        5253.350         733.307
       31353.890        3802.446         685.652
       33984.304        2537.138         445.694
       32226.229        2383.025         480.149
       35513.922        2668.109         565.767
       35125.659        2132.273         601.884
       41392.790        4416.534         557.653
       41737.704        3807.521         562.605
       38403.168        4816.635         604.618
       42902.193        4854.067         563.821
       45024.794        2964.815         538.421
       44267.399        2537.532         484.803
       46509.270        4857.313         595.918
       47590.923        3069.335         552.929
       46945.608        2373.925         499.506
       44959.255        4854.605         612.930
       47640.688        3379.416         547.046
       48804.203        3119.876         589.967
       48172.388        4293.725         646.381
       48240.825        4384.593         627.164
       52713.383        2975.822         542.224
       55386.085        3334.164         745.241
       51656.158        4584.819         741.328
       56466.280        3587.309         694.887
       54393.402        4558.435         831.795
       56215.222        4375.727         792.981
       61256.486        3176.626         556.909
       62388.896        4027.896         561.960
       62783.597        3072.719         521.163
       60328.529        4342.426         649.834
       65668.490        4284.125         571.814
       65901.902        3140.374         554.163
[...]
POINT_DATA       7777
SCALARS height float 1
LOOKUP_TABLE default
   365.5
   371.4
   355.3
   409.5
   346.9
   373.5
   250.6
   394.4
   412.9
   348.1
   363.3
   395.6
   423.3
   291.6
   378.5
   372.4
   366.5
   362.7
   353.3
   414.2
   271.8
   386.6
   412.3
   363.0
   269.3
   404.5
   359.8
   262.0
   352.5
   397.2
   372.8
   386.3
   355.4
   331.0
   403.9
   364.5
   308.5
   372.7
   340.3
   387.3
   340.4
   327.1
   393.1
   362.9
   423.8
   245.9
   388.9
   357.7
   258.6
   403.9
   404.1
   269.3
   314.5
   399.5
   369.3
   255.5
   350.6
   404.6
   437.1
   377.3
   579.8
   485.1
   527.4
   525.2
   541.8
   565.4
   584.2
   429.8
   583.8
   515.6
   526.4
   438.0
   575.8
   456.9
   508.3
   534.1
   413.1
   510.8
   428.2
   544.9
   575.0
   435.6
   603.8
   545.3
   434.2
   528.3
   502.2
   539.2
   432.9
   437.7
   538.8
   589.3
   614.8
   422.9
   498.0
   616.5
   449.9
   649.7
   418.3
   539.5
   414.5
   566.9
   504.0
   557.0
   588.0
   535.4
   445.6
   437.4
   435.8
   534.0
   475.4
   420.1
   535.1
   424.3
   525.1
   517.4
   676.1
   533.2
   506.5
   425.1
   599.9
   504.0
   598.7
   415.3
   519.4
   587.2
   518.2
   481.3
   609.0
   461.3
   473.6
   473.5
   449.2
   615.2
   478.9
   543.5
   447.7
   504.9
   611.8
   549.1
   618.2
   443.5
   511.0
   501.8
   743.1
   662.3
   570.7
   645.0
   426.5
   778.3
   749.4
   597.7
   743.6
   662.7
   456.3
   569.7
   555.5
   599.3
   558.6
   623.3
   460.3
   651.8
   605.0
   610.1
   587.6
   526.7
   515.3
   761.3
   721.2
   708.0
   733.3
   685.7
   445.7
   480.1
   565.8
   601.9
   557.7
   562.6
   604.6
   563.8
   538.4
   484.8
   595.9
   552.9
   499.5
   612.9
   547.0
   590.0
   646.4
   627.2
   542.2
   745.2
   741.3
   694.9
   831.8
   793.0
   556.9
   562.0
   521.2
   649.8
   571.8
   554.2
   784.0
   588.0
   576.1
   801.6
   640.1
   690.4
   602.8
   771.5
   698.3
   618.0
   675.5
   734.6
   567.5
   421.5
   436.6
   607.2
   432.9
   220.5
   557.5
   464.0
   636.3
   666.4
   704.2
   882.0
   648.6
   843.9
   934.0
   827.8
   857.4
   711.0
   875.7
   648.5
   539.3
   629.0
   588.0
   637.9
   660.0
   889.9
   725.4
   904.0
   814.5
   683.1
   856.9
   837.0
   857.1
   865.9
   889.6
  1018.1
  1017.1
   579.6
   700.0
   821.5
   868.3
   648.3
   651.9
   929.2
   923.4
   692.7
   774.2
   745.4
   801.2
   674.9
   780.3
   628.3
   693.4
   816.4
   749.1
   842.5
   842.3
   832.7
   816.5
   897.6
   816.4
   823.8
   825.8
  1019.3
   913.4
   936.2
   878.5
   925.1
   634.3
   687.1
   666.0
   718.8
   730.0
   699.9
   802.3
   791.5
   844.0
   828.4
   766.0
   853.9
   676.7
   745.5
   713.6
   888.2
   866.2
   475.9
   505.4
   433.3
   594.5
   785.5
   909.4
   878.6
   657.7
   707.5
  1022.8
   830.3
   824.6
   887.5
   898.2
   904.1
   819.3
   821.8
   829.7
   844.0
   859.6
   854.7
   830.5
   821.5
   713.6
   816.2
   995.9
   919.1
   965.4
   966.0
  1010.4
   923.1
  1041.1
   988.7
  1069.0
   922.7
   923.8
   889.9
  1023.8
  1020.4
   969.1
  1022.6
   984.0
  1016.0
  1006.1
   777.6
   863.7
   841.0
   859.4
   860.3
   918.0
   931.7
   927.3
  1021.5
   922.7
   922.6
   857.1
   922.6
  1033.4
  1032.8
  1036.0
   922.6
  1064.4
  1063.9
   737.8
   866.6
   904.8
   723.3
   780.5
   777.7
   831.5
   857.7
   971.0
   979.8
   972.3
   940.7
   910.6
  1057.4
  1069.2
   906.5
   946.1
   813.4
   945.6
   943.6
   946.4
   757.9
   637.2
   881.9
   738.5
   928.6
   433.6
   551.4
   519.4
   431.4
   530.7
   493.3
   662.4
   628.0
  1039.1
  1040.0
   963.4
   800.7
  1022.5
  1028.4
   922.7
  1063.2
   867.9
  1069.1
  1069.0
  1069.0
  1069.1
  1069.1
   866.9
   923.0
   923.0
   923.0
   923.0
   923.1
   923.1
   923.1
  1069.0
   923.8
  1069.2
   977.9
  1056.2
   923.8
   871.0
  1069.0
   886.7
  1055.1
  1053.9
  1055.8
  1055.7
  1055.0
  1069.1
  1069.1
   922.7
  1069.0
   922.7
   922.7
   922.6
  1068.9
   922.6
  1068.9
  1068.9
  1069.0
  1069.0
   918.7
  1069.1
  1069.1
  1002.8
  1069.1
   935.4
   927.7
  1019.2
   944.4
  1027.3
  1011.9
   998.7
  1011.4
  1009.5
  1069.2
  1035.3
  1057.7
  1064.2
  1064.2
  1056.0
  1065.2
  1023.5
   924.1
   968.3
   621.3
   546.7
   581.8
   523.5
   453.3
   414.1
   421.9
   473.8
   555.5
   457.8
   501.9
   789.3
   947.0
   922.7
   970.1
   940.1
   991.2
  1069.1
   922.7
   922.7
   922.7
   875.8
  1069.1
   996.2
  1069.1
  1069.2
  1069.2
  1005.5
  1069.2
  1069.2
   922.9
   922.9
   922.9
  1069.0
  1069.0
  1069.0
  1069.0
  1069.0
  1069.1
  1069.1
  1023.7
  1069.1
  1069.1
  1069.1
   944.4
   922.8
   922.8
   922.8
   922.8
  1068.9
  1069.0
  1069.0
  1069.0
  1069.0
  1069.0
   922.6
   922.8
   922.8
  1002.8
  1069.1
  1069.1
   922.8
  1002.8
   922.9
  1069.2
   922.8
   951.1
  1069.2
  1069.2
   922.9
   923.0
   923.0
  1069.3
  1069.1
  1069.1
  1069.2
   707.8
   857.6
   927.0
   638.1
   543.0
   513.8
   539.7
   540.5
   631.7
   698.9
   658.7
   720.3
   957.2
   994.7
  1026.4
   922.7
   922.7
   922.8
   922.7
   927.3
  1069.1
   922.8
   922.8
   922.8
   922.8
   922.7
  1069.0
  1069.1
  1069.1
  1069.0
  1069.1
   935.7
  1069.2
   922.9
  1069.2
  1005.5
  1045.1
  1069.1
   922.8
  1069.0
  1069.1
  1069.0
  1069.1
  1069.0
   967.3
  1069.1
   922.8
   944.4
   944.4
   944.4
  1069.1
   922.8
   922.8
  1069.0
  1069.0
  1069.0
   922.7
  1069.1
  1069.2
  1069.1
  1069.0
  1002.8
  1002.8
  1021.3
  1069.1
   922.9
  1069.1
   922.9
   922.9
  1047.3
  1069.2
  1069.2
   999.2
  1069.2
  1069.1
   922.9
   922.9
   962.6
   890.6
   769.5
   897.8
   542.1
   454.3
   499.1
   262.1
   518.4
   620.0
   734.5
   949.9
   800.5
   787.2
  1032.7
   994.7
   994.7
   922.8
   922.8
   927.3
   927.3
   927.3
   922.7
  1069.1
   973.8
  1005.5
   922.7
   935.7
  1069.1
   971.4
   922.6
   922.8
  1069.1
   922.8
   922.5
   967.3
   967.3
   967.3
  1069.1
  1069.1
  1069.2
  1069.1
  1069.1
  1069.3
  1069.1
  1069.1
   923.0
  1069.0
   922.8
  1069.0
  1069.0
  1069.0
  1069.0
   922.7
   922.7
   922.7
   922.8
  1021.3
  1021.3
  1021.3
   922.8
  1069.1
  1069.1
  1069.1
  1069.2
  1069.2
  1069.1
   999.2
   999.2
   999.2
  1069.1
  1069.2
  1047.3
   972.2
   975.6
   680.5
   785.4
   812.1
   683.5
   584.8
   479.5
   352.1
   382.0
   469.9
   465.1
   550.6
   607.3
   447.5
   465.6
   814.0
   903.6
   781.6
   858.8
  1069.0
  1069.1
  1069.1
  1069.1
  1069.1
  1069.1
   922.8
   922.7
  1069.1
   922.7
   922.7
  1069.2
   935.7
  1069.2
  1069.2
   922.9
   944.5
   922.5
  1069.1
   922.5
   922.6
   922.8
  1069.0
   922.8
  1002.4
  1026.9
   922.8
   922.7
   922.8
  1069.0
   922.8
  1069.0
  1069.1
   922.8
  1069.0
  1007.7
  1069.0
  1069.1
  1069.0
   922.8
   922.8
   922.8
   922.8
  1069.1
  1069.1
  1069.2
  1069.2
  1069.1
  1069.0
  1069.1
  1047.3
  1047.3
  1069.0
  1069.1
  1042.9
  1069.1
   807.1
  1041.3
   626.3
   601.0
   681.5
   474.6
   448.9
   479.1
   530.6
   869.0
   829.5
  1069.0
   922.8
   946.4
  1069.0
  1069.1
  1069.1
   922.8
   922.7
   922.7
   922.7
   922.8
  1069.2
  1069.2
  1069.2
  1069.1
   935.7
  1069.1
   922.9
  1069.1
   971.4
   922.9
   922.9
   922.9
  1069.1
  1069.0
  1069.0
  1026.9
  1002.4
   922.8
   922.8
   944.4
   925.2
   922.8
   922.7
   922.8
   922.8
   922.8
  1069.1
  1069.1
   922.8
  1069.0
  1069.0
  1007.7
  1069.1
  1069.1
  1069.1
  1063.3
  1069.1
   922.8
  1069.1
  1069.0
  1069.0
   922.8
  1069.0
  1069.0
   938.8
  1069.0
   824.5
   739.3
   809.7
   473.9
   435.0
   580.0
   585.5
   491.2
   347.7
   427.0
   418.1
   541.2
   610.8
   662.5
   644.0
   815.6
   923.0
   945.4
   672.8
   922.8
   922.9
   922.8
   922.8
   922.8
  1069.1
  1069.1
  1069.1
  1069.2
  1069.1
  1069.2
  1069.1
  1069.2
  1069.1
  1069.1
  1036.5
  1069.0
  1069.0
  1069.0
   922.8
  1069.0
  1069.0
  1069.0
   922.8
   922.7
   922.8
  1069.1
   933.1
  1069.1
   922.7
  1007.7
  1069.0
  1069.0
  1069.0
   922.8
  1069.0
  1069.1
  1069.0
  1069.0
  1069.1
   922.8
   922.8
   922.8
   922.8
  1069.1
   973.1
  1069.1
   922.8
   922.7
  1069.1
  1069.0
  1069.1
  1069.1
   951.2
   711.5
   861.9
   922.8
   481.8
   516.3
   432.7
   477.0
   683.1
   594.0
   712.0
   681.5
   922.9
   922.9
   816.9
   923.0
   922.9
   922.9
  1069.2
  1069.3
  1069.1
  1069.1
  1069.1
  1069.2
  1069.1
  1069.2
  1069.1
  1069.1
  1069.1
  1069.2
  1069.1
  1069.1
  1069.1
  1069.1
  1069.1
  1069.1
  1069.1
  1069.0
   922.8
   922.8
   922.8
   922.8
   925.2
   922.9
  1069.0
   944.4
  1069.1
   922.6
   922.7
   922.7
   922.7
   922.6
   922.8
  1069.1
   922.8
   922.8
  1017.9
  1069.0
  1069.0
  1017.9
  1069.1
  1069.1
   922.7
  1039.6
   973.1
   973.1
   973.4
  1069.1
  1069.1
   905.0
   922.7
   868.3
   908.9
   708.5
   636.5
   653.8
   526.9
   464.3
   572.0
   417.5
   511.1
   455.7
   766.3
   821.8
  1069.3
  1069.3
  1069.3
  1069.1
  1069.2
  1069.3
   927.3
  1069.1
   922.8
  1069.1
   942.4
  1069.2
  1069.2
   922.9
  1069.1
   922.9
   922.9
   993.6
  1069.1
   997.3
   922.8
  1069.1
   922.8
   922.8
  1069.1
  1069.0
  1069.0
  1069.1
   991.3
   922.9
   944.4
   922.6
   922.6
   922.8
   922.8
   922.6
   922.9
  1069.0
  1069.1
   922.9
  1017.9
   922.8
  1017.9
   922.7
   922.7
   922.7
  1069.2
  1069.2
  1068.9
  1069.2
   973.4
  1069.1
   922.8
   973.4
   922.8
   922.8
  1069.0
  1023.3
   998.9
   960.9
   969.9
   826.3
  1025.3
   719.1
   791.3
   813.5
   493.6
   472.6
   592.5
   448.8
   294.6
   452.6
   545.2
   566.6
   407.2
   435.2
   599.8
   611.9
   601.7
   822.0
   819.9
   739.5
  1069.2
  1069.3
  1069.3
   923.0
  1069.1
  1069.3
  1069.2
  1069.1
  1069.1
   922.8
  1066.5
  1069.2
  1069.1
   932.0
  1069.1
  1069.1
  1069.1
  1069.0
  1069.1
  1069.2
   997.3
  1069.1
  1069.1
  1069.2
  1064.9
  1069.2
   922.8
   922.7
   922.6
   922.6
   922.7
   922.6
   922.6
   922.6
   922.6
  1069.2
   922.9
  1069.1
   922.9
   922.6
  1068.9
   922.9
  1068.9
  1068.9
  1068.9
   922.8
   973.4
   922.8
  1068.9
   922.8
  1043.5
   998.9
  1069.1
  1069.1
  1069.1
   981.9
   931.1
   975.9
   818.8
   823.5
   453.1
   544.4
   433.5
   572.4
   573.0
   468.9
   498.3
   795.7
   658.5
   828.1
  1069.2
   890.4
  1067.5
   923.0
  1069.0
  1069.2
   976.6
   923.0
  1069.1
   942.4
   927.3
  1057.9
   923.0
  1069.1
  1069.0
  1069.2
  1066.4
   923.1
  1069.1
  1069.1
  1069.1
   923.1
  1069.1
   997.3
  1069.1
   922.8
  1069.1
  1069.1
  1064.9
   981.3
  1064.9
  1064.9
  1069.2
  1069.0
   922.9
   922.7
   922.7
   922.7
  1069.1
  1069.1
   922.9
  1069.1
  1069.1
   922.9
   922.9
   922.9
  1069.2
  1069.1
   922.7
   948.3
  1068.9
   922.6
  1068.9
   922.9
  1068.9
   973.2
   922.6
   922.8
   973.2
  1069.1
  1069.1
  1069.1
  1069.1
  1033.4
   952.8
  1069.1
   819.7
   940.3
   520.5
   488.9
   554.9
   396.9
   569.8
   432.0
   449.6
   472.0
   876.8
   887.3
  1069.2
   933.6
  1069.0
   922.8
  1069.2
  1069.0
  1069.2
  1069.1
   923.0
   922.8
  1066.4
  1068.9
   922.8
  1069.3
  1069.0
   923.1
   922.9
   922.8
  1043.3
  1069.1
   981.3
   981.3
   972.8
  1069.2
  1069.2
  1069.1
   922.9
  1069.0
  1069.1
  1069.0
  1069.1
  1069.1
  1056.9
  1069.0
  1069.1
  1069.0
  1069.0
  1027.3
  1068.8
   922.6
  1027.3
   922.6
   922.6
  1068.9
   943.9
   922.9
   922.8
   973.2
   973.2
   973.2
   973.2
   922.8
  1069.1
  1069.1
   922.8
  1034.0
   997.7
   922.8
   734.8
   762.9
   756.6
   580.6
   375.9
   527.4
   453.2
   488.7
   543.4
   711.7
   814.5
   919.7
   938.6
   702.6
   922.8
   986.4
  1069.0
  1069.1
   922.8
  1069.1
   922.7
  1068.9
  1069.1
  1069.0
  1069.1
   922.7
  1069.1
  1069.1
   972.8
   922.9
   972.8
   972.8
  1069.2
  1069.1
  1069.2
   922.9
  1069.1
   922.8
  1069.2
   922.7
  1069.1
  1069.1
   922.7
  1069.1
   922.7
  1069.1
   922.6
   922.8
  1027.3
  1027.3
   948.3
  1068.9
   948.3
   922.6
   943.9
  1069.1
  1069.0
   922.6
  1069.1
  1069.1
   922.8
   922.8
   922.7
   922.8
   922.8
   922.8
   944.2
   893.2
   922.7
   488.2
   619.1
   688.0
   430.0
   618.8
   635.6
   514.8
   669.1
   582.0
   625.0
   662.0
   978.5
   987.6
   981.8
   922.8
   922.8
  1069.1
  1069.1
  1069.1
   922.7
   922.7
   922.7
  1069.1
   922.9
   922.9
  1069.1
  1069.0
  1069.1
  1069.0
  1069.1
   923.0
   923.0
   923.0
  1069.1
  1069.1
   922.9
   922.9
   922.9
   922.9
   922.8
   922.8
   922.7
   922.7
   922.7
   922.7
   922.6
  1069.1
  1069.0
  1069.1
   922.6
   922.6
   922.6
   922.6
  1068.9
   943.9
   922.6
   922.6
   922.6
   922.7
  1069.0
  1069.1
  1069.0
  1069.0
  1069.0
   922.7
   922.8
   922.8
   855.3
   882.7
   831.0
   439.2
   444.3
   508.3
   382.8
   535.6
   485.5
   437.3
   464.4
   469.0
   557.7
   605.0
   523.9
   608.2
   738.6
   824.2
   891.0
  1011.5
  1004.7
  1069.0
  1069.0
  1069.0
  1069.1
  1069.0
   922.7
  1069.0
  1069.1
  1069.2
   922.7
  1069.1
   922.7
   922.8
  1069.1
   922.7
  1069.1
  1069.2
   922.8
  1069.2
  1069.1
  1069.1
  1069.1
  1069.1
  1069.1
   923.0
  1069.3
  1069.1
  1069.2
  1069.1
   923.0
  1056.3
  1069.0
  1069.0
  1069.0
   922.8
  1069.0
  1069.0
  1069.2
  1069.1
  1069.2
  1069.1
   922.6
   922.6
   922.6
   922.7
  1069.1
  1069.1
  1068.9
  1069.1
  1068.9
  1068.9
  1069.0
  1069.0
  1069.1
   922.7
   922.8
   922.7
   922.7
   922.8
   930.8
   933.3
   894.5
   897.3
   922.8
   700.9
   705.2
   555.7
   555.1
   621.0
   591.8
   537.3
   509.3
   491.1
   904.3
   897.1
   810.2
   922.8
  1069.0
  1069.1
   922.7
   922.7
   922.7
   922.7
   922.7
   922.7
   922.8
   922.7
   922.8
   922.8
  1069.1
   922.8
   922.8
  1069.1
  1069.1
  1069.1
  1069.1
  1069.1
  1047.1
  1069.3
   922.9
   923.0
   923.0
  1069.1
   922.8
   922.8
   922.8
  1069.0
  1069.1
  1069.1
   922.9
  1069.1
  1069.1
   922.8
  1069.1
   922.8
  1069.1
  1069.1
  1069.1
  1069.1
  1056.1
  1069.1
  1069.1
   922.8
   922.8
   922.8
   922.7
   711.9
   437.4
   599.8
   416.0
   516.8
   539.5
   306.9
   476.7
   434.9
   409.9
   540.5
   597.5
   751.9
   848.8
   692.3
   973.7
  1069.1
   922.8
  1007.3
   922.8
   922.8
   993.8
  1069.1
   922.9
  1069.1
  1069.1
  1069.1
   922.9
   922.7
   922.8
   922.7
  1069.1
   922.7
   922.8
   923.0
  1069.1
  1069.1
   922.8
   923.0
   922.8
   922.9
  1069.1
  1069.1
  1069.1
   922.9
  1069.2
  1069.2
  1069.1
  1069.2
  1069.2
  1069.2
  1063.6
  1069.1
  1069.1
  1069.1
  1069.1
  1069.2
  1069.1
  1069.2
  1069.1
  1069.1
  1069.1
  1069.1
  1069.1
  1069.1
   998.4
  1069.1
  1069.1
   922.8
  1069.1
  1069.1
  1069.1
   941.4
  1069.0
  1069.1
   930.8
  1069.1
   919.5
  1069.1
   972.9
   593.9
   737.5
   763.8
   751.2
   430.0
   577.5
   534.1
   602.4
   593.6
   692.9
   739.8
   785.0
   668.7
   800.2
   949.2
   831.0
  1069.1
  1069.0
   974.7
  1069.2
   993.8
   922.8
  1069.1
   993.8
   922.8
   922.9
  1069.1
   922.7
   922.7
   922.7
   923.0
  1069.0
   923.0
   923.0
   922.8
  1069.1
  1069.2
  1052.8
  1069.2
  1069.2
  1069.2
  1069.2
  1069.2
  1069.2
  1069.2
  1069.1
  1061.3
  1066.3
  1069.1
  1069.1
  1069.1
   922.9
  1069.1
  1069.1
  1069.1
  1069.1
   922.8
   922.6
  1069.2
   922.9
  1005.4
   922.6
   964.0
   930.8
  1069.1
   964.0
   923.6
   816.4
   920.1
   932.9
   915.9
   561.3
   788.4
   581.7
   628.3
   790.8
   517.5
   495.6
   525.4
   503.7
   448.3
   364.0
   649.4
   466.9
   416.5
   513.9
   577.6
   748.9
   922.8
   971.6
   922.8
  1069.2
   922.8
   922.8
   922.8
   922.7
  1069.2
  1069.0
  1069.1
  1069.1
  1069.1
   922.7
   922.8
  1069.0
  1063.4
   922.7
   922.7
   922.7
   922.7
  1069.3
  1069.3
  1069.3
   922.8
   922.8
   922.8
   922.8
   922.8
  1069.2
  1069.2
  1069.2
  1045.5
   922.7
  1069.2
  1069.1
  1069.1
  1069.2
  1045.5
  1069.1
   922.8
   922.8
  1069.1
  1066.3
  1066.3
  1066.3
  1069.2
   922.9
   922.9
   922.8
   922.6
   922.8
   922.9
   922.9
  1068.0
  1069.1
  1059.9
   921.3
   911.9
   559.4
   509.6
   412.1
   452.0
   549.9
   490.4
   753.5
   803.3
   896.2
  1069.0
  1069.0
  1069.1
  1069.0
  1069.1
  1069.2
  1069.1
  1069.1
  1069.1
   922.7
   922.7
   922.7
   922.7
   922.7
   922.8
   922.8
  1063.4
  1063.4
  1069.3
   923.0
  1069.2
  1069.1
  1069.3
   923.0
  1069.1
  1069.2
  1069.1
  1069.2
  1069.2
  1069.2
  1069.2
   922.7
   922.7
   922.7
   922.8
   922.8
   922.8
   922.8
  1069.0
  1057.3
   922.9
   922.9
   922.9
   922.8
   922.8
   922.8
   922.8
  1069.2
  1069.2
  1069.2
  1069.2
  1050.8
  1069.2
  1069.2
  1069.1
  1069.2
  1069.1
  1068.9
  1069.1
  1005.4
  1068.8
  1068.8
  1068.8
  1039.2
   995.7
  1012.5
  1069.1
  1067.9
  1069.1
   884.2
   919.5
   699.1
   850.4
   809.8
   529.2
   609.6
   542.9
   467.1
   491.3
   832.3
   647.0
   887.4
   900.3
   922.8
  1069.1
   993.2
   923.0
  1069.1
   922.9
   922.8
  1069.1
  1025.1
   936.3
  1025.1
  1025.1
  1025.1
  1069.1
   922.8
  1069.1
  1069.2
  1069.1
  1069.2
   922.9
  1069.2
  1069.3
   923.0
  1069.2
   923.0
  1069.1
  1069.2
  1069.2
  1069.2
  1069.2
   922.9
   922.9
  1045.5
  1069.2
  1069.0
  1069.0
   995.9
  1069.1
   922.7
  1069.0
  1068.9
  1069.1
  1069.2
   922.7
   922.9
  1069.1
  1069.2
  1069.2
  1069.1
  1069.1
  1069.1
  1069.1
  1047.2
  1063.2
  1069.1
  1068.8
  1069.1
  1008.3
  1062.0
  1068.8
   848.2
   917.2
   871.3
  1008.9
   691.6
   856.5
   458.2
   375.7
   479.4
   464.3
   713.5
   617.1
   515.6
   690.1
   650.4
   698.0
   786.5
   842.6
   922.7
   922.8
   923.0
   922.8
   922.9
   922.9
   922.9
   923.0
   922.8
   936.3
   922.8
  1069.1
   922.8
   922.8
  1069.1
  1069.1
  1069.2
  1069.3
  1069.3
  1069.3
  1069.3
  1069.0
  1069.1
   971.3
  1069.1
  1069.2
  1069.2
  1069.2
  1069.2
  1045.5
  1069.1
  1069.0
  1069.1
   922.8
  1069.1
  1069.0
   922.7
   922.7
   922.7
   922.8
  1068.9
  1069.0
   922.7
   922.7
   922.8
  1069.1
  1069.2
  1069.2
  1069.2
   922.9
   922.9
   922.8
  1069.1
  1069.2
   922.9
   922.8
   922.9
  1025.3
   973.1
   669.9
   816.4
   543.4
   507.5
   539.3
   484.7
   554.3
   288.4
   429.7
   476.1
   408.2
   484.9
   599.2
   453.2
   461.0
   809.6
   830.7
   922.8
   922.8
   922.7
   923.0
   923.0
  1069.1
  1069.1
   922.8
  1069.1
  1050.4
   922.8
  1069.3
  1069.1
  1033.6
  1068.8
  1069.3
  1069.3
  1069.2
  1069.2
  1069.2
  1069.2
  1069.2
  1069.1
  1069.2
  1069.1
   922.9
   922.9
  1044.7
  1069.2
  1069.1
  1069.2
  1069.1
  1069.2
  1069.1
  1069.1
  1069.1
   922.8
  1069.1
   922.8
   922.9
   922.8
   922.8
   922.8
  1069.1
  1069.1
  1041.3
  1069.2
  1069.1
  1069.2
  1041.3
  1069.1
  1069.2
   922.8
  1069.2
   922.9
   922.8
   922.9
   922.9
   922.9
   922.8
   827.8
   640.9
   616.2
   652.1
   671.2
   634.1
   409.5
   577.4
   470.1
   547.0
   504.2
   896.0
   968.8
   922.7
   752.5
   922.7
   922.7
  1069.3
   923.0
  1069.3
  1069.2
  1069.1
   923.0
  1069.1
   922.8
  1069.1
   922.8
  1069.1
   923.0
  1069.1
  1069.3
  1069.3
  1069.3
  1069.1
   923.0
   923.0
   923.0
   923.0
  1069.2
  1069.2
  1069.2
  1069.2
  1069.2
   922.9
  1069.1
  1069.1
  1069.1
   922.8
  1069.1
  1069.2
   922.9
  1069.1
  1058.9
  1069.1
   922.8
   922.9
   922.9
   922.9
  1069.1
  1069.1
   996.1
   922.8
   922.8
  1052.6
  1069.1
  1069.1
  1069.1
  1069.1
   922.8
   922.8
   922.8
  1069.1
   922.8
  1069.1
   922.8
   922.8
   850.4
   574.2
   682.3
   711.3
   561.2
   407.7
   467.6
   456.6
   350.6
   454.1
   411.6
   483.6
   696.1
   599.3
   648.3
  1068.9
  1069.0
   908.0
  1052.3
  1069.2
  1069.1
   923.0
   923.0
   930.8
   922.8
  1069.2
  1069.1
   970.3
   970.3
   930.8
  1069.2
  1069.1
  1069.1
  1069.1
   923.0
  1035.2
   923.0
   923.0
  1069.0