# vtk DataFile Version 3.0
divides
ASCII
DATASET UNSTRUCTURED_GRID
POINTS       7414 float
        1755.615        1295.623         357.675
        5793.504        1203.948         382.621
        4533.374        1144.720         342.329
        7758.528        1176.179         402.558
        8165.440        1131.736         338.446
       11194.069        1524.260         379.193
       10767.676         546.847         267.616
       14058.517        1348.887         406.223
       11542.018        1548.999         417.333
       14494.085        1292.562         356.299
       18459.287        1105.489         367.457
       17318.681        1437.664         373.835
       20512.632        1392.674         412.198
       21339.828         572.746         285.461
       20875.124        1364.787         364.245
       25175.497        1037.058         384.235
       23805.397        1298.692         358.825
       26187.229        1029.204         372.986
       27422.104        1158.978         343.928
       29809.532        1287.095         391.013
       30827.772         514.920         256.993
       30133.128        1287.735         359.465
       34371.541        1473.466         394.022
       33437.245        1421.475         372.239
       33061.448         518.769         278.287
       34670.309        1473.507         385.412
       37024.080        1058.405         331.900
       38858.508         531.837         269.186
       38258.716        1276.963         357.069
       37420.895        1065.207         374.352
       40584.202        1132.088         382.199
       41778.217        1372.682         368.419
       43349.882        1280.071         358.209
       45855.679         956.947         335.332
       46655.572        1007.090         326.820
       50625.652         973.023         372.623
       49900.085        1465.472         380.965
       49219.317         666.131         282.285
       51664.112         975.434         381.780
       52914.467        1141.113         342.095
       55444.904        1130.262         385.975
       55866.754        1110.818         338.781
       59058.059        1191.611         349.833
       61867.660        1157.400         391.264
       60557.633        1115.879         342.695
       63502.192        1318.746         405.164
       64430.681         638.323         283.292
       63828.408        1319.096         366.782
       67278.313        1370.523         372.116
       66744.353         593.205         278.923
       67631.693        1380.673         414.438
       70385.543        1516.606         387.270
       69834.496         540.610         285.779
       72148.354         989.972         323.508
       74685.727        1198.181         397.119
       72630.839        1015.359         375.427
       75655.620         502.812         260.490
       75105.230        1177.322         348.868
       76323.980        1343.749         377.758
       78213.760        1284.060         422.588
       78613.781        1242.568         359.231
       79511.707         645.112         485.589
         829.702        1707.615         444.109
        1579.831        3326.539         475.166
         687.721        2684.787         470.313
        3323.826        1677.819         475.266
        4681.387        2148.899         422.996
        3628.148        2712.917         489.050
        5086.989        1624.758         429.314
        6888.559        2614.816         491.001
        7476.865        1643.345         436.275
        9226.112        3124.624         496.326
        9065.779        1326.104         445.989
       12360.747        1937.814         497.276
       11130.187        2371.722         356.769
       12817.558        2389.532         514.253
        9913.917        3170.116         516.201
       16196.049        1897.005         475.697
       17794.455        1864.806         405.083
       15835.940        2408.313         496.076
       17429.560        2885.351         473.364
       20315.148        1787.513         420.118
       20601.498        3814.411         519.457
       21521.990        2391.365         474.931
       21419.371        1655.678         403.328
       20104.180        2470.974         484.816
       22620.724        2493.283         477.361
       23119.425        1641.675         408.941
       24039.282        4325.184         521.187
       24916.161        2471.931         479.964
       24438.607        1692.382         437.027
       27281.875        2678.788         468.178
       29343.818        1610.650         501.495
       29846.359        2651.664         522.965
       26843.688        1569.190         425.401
       30250.129        2372.700         504.201
       35236.007        1704.838         514.447
       37585.613        1602.015         392.000
       36945.125        2412.545         480.603
       39051.863        1751.406         425.728
       38091.941        4437.656         514.232
       39673.450        3057.818         489.848
       40814.868        2924.262         495.041
       42304.526        3329.804         497.485
       42764.535        2540.772         479.881
       42476.294        1860.443         425.308
       41207.131        1777.372         426.558
       44429.909        1670.892         432.912
       46468.494        2115.196         480.703
       47284.396        1442.568         419.059
       46265.090        1371.919         384.415
       50357.840        1701.411         392.756
       50449.280        2282.807         488.880
       49414.681        1770.221         453.948
       49100.266        2470.069         520.336
       53025.609        2143.045         422.522
       54293.224        1535.387         494.434
       51957.478        2321.195         491.391
       52324.861        1505.452         430.782
       55953.240        2939.258         489.594
       57412.633        1586.884         497.459
       55250.784        1836.532         422.523
       59125.359        2273.406         422.747
       59785.837        1572.058         451.887
       56527.669        3116.367         535.632
       61513.111        2546.750         499.507
       60127.573        2017.908         422.748
       61140.723        1563.086         445.061
       63072.423        2299.250         515.439
       63287.928        1656.212         426.784
       63915.209        2125.130         422.903
       67678.126        2148.860         422.856
       67046.624        2239.753         422.733
       67395.389        2911.987         508.029
       67910.076        1516.476         471.407
       66798.716        1950.963         422.904
       70966.256        1770.077         464.006
       71194.079        2344.063         510.654
       70051.465        2290.767         422.856
       73841.358        1547.237         482.913
       75397.944        2693.693         476.910
       73310.647        2397.609         511.859
       76876.100        1671.821         505.797
       79246.973        1670.675         384.649
       78675.906        2572.597         454.240
         642.238        3768.659         468.605
        4336.953        4227.636         538.739
        3717.946        3236.694         422.996
        2742.061        3564.377         496.568
        5638.001        3279.769         357.562
        5626.178        2622.608         423.073
        6344.456        3752.835         422.921
        6206.414        5772.892         532.644
        8884.932        3501.031         538.721
        5139.025        4264.630         502.474
        7847.736        4739.135         528.967
        9428.425        3862.805         422.921
        9077.944        4109.052         569.258
       10763.182        4102.176         569.409
        9674.137        3096.304         487.784
       14012.620        2840.632         423.068
       15080.782        5050.339         524.705
       16424.008        3253.017         514.767
       14465.994        3416.981         422.735
       12007.751        4129.396         537.688
       15673.822        5201.082         542.563
       17760.121        4375.450         504.887
       17911.953        3072.064         443.139
       21717.617        4270.804         509.858
       23678.134        4476.083         531.357
       21021.035        4135.330         515.343
       26829.143        4042.241         516.077
       26688.926        3030.128         495.656
       24450.132        4429.990         522.265
       26901.276        2793.180         464.495
       28783.826        2997.934         568.979
       27213.498        3769.208         554.584
       31685.805        4112.402         568.971
       30978.900        2882.212         531.845
       30511.399        2456.370         474.266
       30740.045        2572.206         485.574
       33692.715        4270.774         513.617
       33871.941        2584.509         480.309
       32478.885        4114.012         512.788
       33075.347        2321.283         425.166
       35370.003        2622.890         519.943
       35380.696        4367.517         529.200
       35299.086        2228.604         525.368
       41721.445        3804.453         519.390
       40203.257        4053.908         422.880
       41140.831        4221.885         507.873
       38605.820        4673.961         530.690
       44544.268        4568.508         510.900
       45035.276        2963.645         502.263
       44201.574        2592.316         471.015
       46800.073        2466.617         468.493
       47723.011        4048.211         524.192
       45167.107        4523.221         525.861
       47440.507        3042.951         503.454
       49324.233        3082.876         520.239
       48162.876        3887.195         503.660
       51160.640        4566.333         513.861
[...]
POINT_DATA       7414
SCALARS height float 1
LOOKUP_TABLE default
   357.7
   382.6
   342.3
   402.6
   338.4
   379.2
   267.6
   406.2
   417.3
   356.3
   367.5
   373.8
   412.2
   285.5
   364.2
   384.2
   358.8
   373.0
   343.9
   391.0
   257.0
   359.5
   394.0
   372.2
   278.3
   385.4
   331.9
   269.2
   357.1
   374.4
   382.2
   368.4
   358.2
   335.3
   326.8
   372.6
   381.0
   282.3
   381.8
   342.1
   386.0
   338.8
   349.8
   391.3
   342.7
   405.2
   283.3
   366.8
   372.1
   278.9
   414.4
   387.3
   285.8
   323.5
   397.1
   375.4
   260.5
   348.9
   377.8
   422.6
   359.2
   485.6
   444.1
   475.2
   470.3
   475.3
   423.0
   489.0
   429.3
   491.0
   436.3
   496.3
   446.0
   497.3
   356.8
   514.3
   516.2
   475.7
   405.1
   496.1
   473.4
   420.1
   519.5
   474.9
   403.3
   484.8
   477.4
   408.9
   521.2
   480.0
   437.0
   468.2
   501.5
   523.0
   425.4
   504.2
   514.4
   392.0
   480.6
   425.7
   514.2
   489.8
   495.0
   497.5
   479.9
   425.3
   426.6
   432.9
   480.7
   419.1
   384.4
   392.8
   488.9
   453.9
   520.3
   422.5
   494.4
   491.4
   430.8
   489.6
   497.5
   422.5
   422.7
   451.9
   535.6
   499.5
   422.7
   445.1
   515.4
   426.8
   422.9
   422.9
   422.7
   508.0
   471.4
   422.9
   464.0
   510.7
   422.9
   482.9
   476.9
   511.9
   505.8
   384.6
   454.2
   468.6
   538.7
   423.0
   496.6
   357.6
   423.1
   422.9
   532.6
   538.7
   502.5
   529.0
   422.9
   569.3
   569.4
   487.8
   423.1
   524.7
   514.8
   422.7
   537.7
   542.6
   504.9
   443.1
   509.9
   531.4
   515.3
   516.1
   495.7
   522.3
   464.5
   569.0
   554.6
   569.0
   531.8
   474.3
   485.6
   513.6
   480.3
   512.8
   425.2
   519.9
   529.2
   525.4
   519.4
   422.9
   507.9
   530.7
   510.9
   502.3
   471.0
   468.5
   524.2
   525.9
   503.5
   520.2
   503.7
   513.9
   539.2
   422.5
   422.5
   422.5
   422.5
   422.7
   422.8
   422.7
   422.7
   501.2
   422.9
   548.4
   422.9
   422.8
   423.0
   423.0
   569.0
   422.9
   422.7
   422.9
   422.9
   545.7
   549.2
   422.6
   527.0
   569.3
   534.4
   525.1
   401.7
   417.1
   520.0
   419.2
   220.5
   494.1
   439.5
   530.5
   547.9
   569.3
   526.3
   422.9
   422.9
   422.7
   422.9
   422.8
   517.2
   526.5
   535.1
   542.7
   526.7
   423.2
   569.4
   559.6
   423.2
   423.2
   569.1
   422.7
   422.7
   422.7
   569.0
   569.3
   569.3
   546.1
   554.0
   569.2
   560.9
   552.5
   422.9
   510.2
   423.0
   559.2
   422.9
   543.5
   568.9
   568.9
   569.0
   569.0
   422.6
   422.8
   422.6
   422.7
   480.1
   480.1
   480.1
   480.1
   569.0
   569.1
   422.7
   422.7
   569.2
   422.6
   569.2
   422.6
   422.6
   422.6
   423.0
   423.0
   451.5
   470.4
   415.0
   511.4
   569.2
   569.3
   528.9
   422.9
   422.9
   422.6
   569.0
   569.2
   569.1
   569.2
   569.3
   569.0
   569.1
   569.3
   569.3
   569.2
   560.6
   569.4
   423.1
   554.7
   423.2
   423.2
   423.1
   569.1
   423.1
   569.1
   569.1
   425.5
   569.0
   569.3
   569.0
   423.0
   569.1
   569.2
   422.9
   422.9
   422.9
   422.9
   568.9
   569.1
   541.9
   568.9
   422.6
   422.7
   422.7
   422.7
   422.7
   422.7
   569.2
   569.0
   569.0
   569.0
   569.3
   569.0
   569.1
   569.2
   569.1
   569.1
   569.2
   569.3
   569.2
   569.1
   569.2
   569.1
   423.0
   569.2
   569.2
   527.4
   569.2
   526.7
   522.7
   423.0
   425.2
   472.9
   493.7
   414.5
   485.5
   471.4
   545.2
   546.4
   534.3
   569.2
   569.2
   422.9
   422.9
   422.6
   569.1
   569.2
   569.1
   569.1
   569.1
   569.1
   569.1
   423.0
   423.0
   423.0
   423.0
   423.1
   423.1
   423.1
   569.0
   425.5
   569.2
   423.2
   423.2
   425.5
   569.0
   569.1
   569.1
   569.4
   569.1
   569.0
   569.2
   569.2
   422.7
   569.1
   422.7
   422.7
   422.6
   568.9
   422.6
   569.0
   568.9
   569.0
   569.0
   422.6
   569.0
   569.1
   569.2
   569.2
   569.1
   569.1
   569.1
   569.1
   569.1
   569.3
   569.3
   569.2
   569.3
   569.2
   540.3
   569.3
   569.3
   569.4
   569.4
   569.1
   423.0
   423.0
   423.0
   509.9
   543.7
   484.5
   530.0
   429.5
   416.8
   418.4
   450.8
   497.7
   439.4
   460.6
   569.1
   422.7
   569.2
   555.6
   569.2
   569.2
   422.6
   422.6
   422.6
   569.2
   496.2
   569.2
   569.3
   569.3
   569.2
   569.3
   569.2
   422.9
   422.9
   422.9
   569.0
   569.0
   569.0
   569.0
   569.1
   569.0
   569.1
   523.7
   569.1
   569.1
   569.1
   480.4
   422.8
   422.8
   422.8
   422.7
   568.9
   569.0
   569.1
   569.0
   569.0
   569.1
   422.6
   422.8
   422.8
   569.1
   569.0
   569.2
   422.8
   569.1
   422.8
   569.3
   422.8
   569.3
   569.2
   569.2
   422.8
   422.9
   422.9
   569.4
   569.2
   569.2
   569.2
   569.1
   463.5
   473.2
   500.9
   467.6
   522.6
   515.0
   505.0
   559.3
   569.0
   422.7
   569.0
   422.7
   422.8
   422.7
   434.8
   569.1
   422.8
   422.8
   422.8
   422.8
   422.7
   569.2
   569.2
   569.2
   569.1
   569.1
   457.1
   569.3
   422.9
   569.2
   569.1
   545.1
   569.2
   422.8
   569.1
   569.3
   569.1
   569.1
   569.1
   541.4
   569.1
   422.8
   480.4
   480.4
   480.4
   569.2
   422.7
   422.8
   569.0
   569.1
   569.1
   422.7
   569.2
   569.3
   569.2
   569.1
   569.1
   569.1
   569.1
   569.1
   422.8
   569.1
   422.8
   422.8
   569.0
   569.1
   569.2
   569.1
   569.1
   569.1
   422.8
   422.8
   569.1
   569.1
   541.8
   530.6
   569.0
   454.7
   480.7
   508.2
   269.7
   465.5
   520.3
   471.5
   569.0
   535.2
   559.3
   569.0
   569.0
   569.0
   422.8
   422.8
   434.8
   434.8
   434.8
   422.7
   569.1
   510.5
   569.2
   422.7
   457.1
   569.2
   552.3
   422.6
   422.8
   569.1
   422.8
   422.5
   541.4
   541.4
   541.4
   569.1
   569.1
   569.2
   569.1
   569.1
   569.3
   569.0
   569.1
   423.0
   569.1
   422.8
   569.1
   569.1
   569.0
   569.1
   422.7
   422.7
   422.7
   422.8
   569.1
   569.2
   569.1
   422.8
   569.1
   569.1
   569.1
   569.1
   569.2
   569.3
   569.0
   569.0
   569.0
   569.1
   569.1
   569.1
   554.3
   569.0
   422.7
   422.7
   422.7
   422.7
   441.9
   349.1
   397.6
   447.7
   435.9
   439.3
   483.6
   544.3
   458.2
   535.8
   569.1
   569.0
   569.1
   569.1
   569.2
   569.2
   569.1
   422.8
   422.7
   569.2
   422.7
   422.7
   569.2
   457.1
   569.2
   569.3
   422.9
   470.5
   422.5
   569.2
   422.5
   422.6
   422.8
   569.0
   422.8
   569.0
   569.0
   422.8
   422.7
   422.8
   569.1
   422.8
   569.1
   569.1
   422.8
   569.0
   569.1
   569.0
   569.0
   569.0
   422.8
   422.8
   422.8
   422.8
   569.1
   569.2
   569.3
   569.2
   569.1
   569.0
   569.1
   566.0
   569.0
   569.0
   569.0
   569.2
   569.0
   422.7
   569.0
   510.5
   422.7
   456.9
   449.4
   422.9
   462.0
   538.2
   531.1
   503.0
   569.1
   569.2
   569.1
   422.8
   569.0
   569.1
   569.1
   569.2
   422.8
   422.7
   422.7
   422.7
   422.7
   569.1
   569.1
   569.1
   569.1
   457.1
   569.2
   422.9
   569.1
   552.3
   422.9
   422.9
   422.9
   569.2
   569.1
   569.1
   569.0
   552.9
   422.8
   422.8
   480.4
   429.2
   422.8
   422.7
   422.8
   422.8
   422.8
   569.1
   569.3
   422.8
   569.0
   569.0
   569.1
   569.2
   569.2
   569.1
   563.3
   569.2
   422.8
   569.0
   569.1
   569.0
   422.8
   569.0
   569.0
   569.0
   569.0
   422.7
   422.7
   422.7
   422.7
   422.7
   446.3
   434.3
   499.6
   492.4
   336.8
   439.3
   409.1
   483.1
   513.1
   422.9
   569.3
   422.9
   569.4
   422.8
   422.9
   422.9
   422.8
   422.8
   569.0
   569.1
   569.1
   569.2
   569.1
   569.2
   569.1
   569.2
   569.2
   569.2
   536.6
   569.0
   569.1
   569.1
   422.8
   569.1
   569.1
   569.1
   422.8
   422.7
   422.8
   569.1
   447.9
   569.1
   422.7
   569.1
   569.0
   569.0
   569.1
   422.8
   569.1
   569.1
   569.0
   569.0
   569.1
   422.8
   422.8
   422.8
   422.8
   569.1
   556.9
   569.2
   422.8
   422.7
   569.1
   569.0
   569.2
   569.0
   569.0
   561.1
   422.7
   491.5
   476.3
   412.9
   484.6
   422.9
   422.9
   422.9
   422.9
   422.9
   423.0
   422.9
   422.9
   569.3
   569.3
   569.1
   569.1
   569.0
   569.1
   569.0
   569.2
   569.2
   569.2
   569.1
   569.2
   569.1
   569.1
   569.1
   569.2
   569.2
   569.1
   569.1
   569.1
   422.7
   422.8
   422.8
   422.8
   429.2
   422.9
   569.0
   480.4
   569.1
   422.7
   422.7
   422.7
   422.7
   422.6
   422.8
   569.3
   422.8
   422.8
   569.0
   569.1
   569.0
   569.0
   569.0
   569.2
   422.7
   569.1
   556.9
   556.9
   557.6
   569.2
   569.2
   422.7
   422.7
   559.5
   569.1
   513.5
   452.2
   489.5
   423.0
   432.6
   496.9
   454.3
   515.4
   520.0
   526.2
   569.3
   569.3
   569.3
   569.3
   569.2
   569.3
   569.3
   569.3
   434.7
   569.2
   422.8
   569.1
   475.1
   569.1
   569.1
   422.9
   569.2
   422.9
   422.9
   493.6
   569.1
   569.0
   422.7
   569.1
   422.7
   422.7
   569.1
   569.1
   569.2
   569.2
   491.3
   422.9
   480.4
   422.6
   422.6
   422.7
   422.7
   422.6
   422.8
   569.0
   569.0
   422.8
   569.0
   422.7
   569.0
   422.7
   422.7
   422.7
   569.4
   569.4
   568.9
   569.3
   557.6
   569.1
   422.8
   557.6
   422.8
   422.8
   569.1
   569.0
   569.1
   569.4
   423.0
   569.3
   569.1
   423.0
   423.0
   423.0
   452.0
   460.9
   421.3
   282.4
   441.6
   479.2
   500.4
   413.8
   418.0
   569.3
   569.3
   521.2
   569.2
   569.3
   569.4
   422.9
   569.3
   569.2
   569.2
   569.2
   569.3
   422.8
   569.0
   569.2
   569.1
   445.7
   569.1
   569.1
   569.1
   569.1
   569.2
   569.3
   569.0
   569.1
   569.2
   569.2
   569.1
   569.3
   422.7
   422.6
   422.6
   422.6
   422.6
   422.6
   422.6
   422.6
   422.6
   569.3
   422.8
   569.1
   422.8
   422.6
   568.9
   422.8
   568.9
   569.0
   568.9
   422.8
   557.6
   422.8
   569.1
   422.8
   543.5
   568.6
   569.1
   569.2
   569.2
   569.1
   569.1
   569.2
   569.3
   569.2
   569.1
   533.9
   448.4
   491.3
   450.9
   453.8
   423.1
   484.6
   423.1
   423.1
   423.1
   569.2
   569.3
   567.5
   422.9
   569.1
   569.3
   510.1
   423.0
   569.2
   475.1
   434.7
   569.0
   423.0
   569.2
   569.0
   569.1
   568.9
   423.0
   569.1
   569.2
   569.1
   423.0
   569.1
   569.0
   569.3
   422.8
   569.2
   569.1
   569.1
   569.0
   569.1
   569.2
   569.3
   569.0
   422.8
   422.7
   422.7
   422.7
   569.1
   569.1
   422.8
   569.1
   569.1
   422.8
   422.8
   422.8
   569.3
   569.1
   422.7
   491.1
   568.9
   422.6
   569.0
   422.9
   569.0
   557.0
   422.6
   422.8
   557.0
   569.1
   569.3
   569.3
   569.1
   422.8
   569.2
   569.2
   422.8
   483.0
   460.8
   483.8
   360.3
   470.9
   424.2
   439.5
   462.7
   527.5
   532.0
   423.0
   551.5
   569.2
   423.0
   569.0
   422.8
   569.3
   569.1
   569.3
   569.0
   423.0
   422.9
   569.0
   568.9
   422.8
   569.4
   568.9
   423.0
   422.8
   422.8
   569.0
   569.2
   569.0
   569.0
   556.1
   569.3
   569.2
   569.1
   422.8
   569.1
   569.1
   569.0
   569.2
   569.2
   556.9
   569.1
   569.1
   569.0
   569.0
   569.0
   568.9
   422.6
   569.1
   422.6
   422.6
   569.0
   479.2
   422.9
   422.8
   557.0
   557.0
   557.0
   557.0
   422.8
   569.1
   569.0
   422.8
   422.8
   422.8
   547.8
   569.0
   510.5
   569.1
   491.0
   504.9
   388.7
   482.0
   446.1
   457.2
   423.0
   423.0
   423.0
   423.0
   422.8
   569.3
   569.1
   569.1
   422.8
   569.0
   422.7
   568.9
   569.1
   568.9
   569.1
   422.7
   569.1
   569.1
   547.2
   422.8
   556.1
   556.1
   569.2
   569.1
   569.2
   422.9
   569.2
   422.7
   569.3
   422.7
   569.2
   569.1
   422.7
   569.1
   422.7
   569.0
   422.6
   422.7
   569.0
   569.0
   491.1
   568.9
   491.1
   422.6
   479.2
   569.1
   569.1
   422.6
   569.2
   569.1
   422.8
   422.8
   422.7
   422.8
   422.8
   422.8
   569.1
   569.1
   422.7
   549.6
   503.6
   462.5
   538.0
   422.6
   470.2
   517.6
   440.5
   527.4
   523.7
   529.6
   569.0
   569.0
   553.6
   422.8
   422.8
   569.1
   569.1
   569.1
   422.7
   422.7
   422.7
   569.1
   422.8
   422.8
   569.1
   569.0
   569.2
   569.1
   569.1
   422.9
   422.9
   422.9
   569.1
   569.3
   422.9
   422.9
   422.9
   422.9
   422.7
   422.7
   422.7
   422.7
   422.7
   422.7
   422.6
   569.1
   569.1
   569.1
   422.6
   422.6
   422.6
   422.6
   568.9
   479.2
   422.6
   422.6
   422.6
   422.7
   569.1
   569.0
   569.0
   569.1
   569.0
   422.7
   422.7
   422.7
   530.5
   524.6
   569.2
   429.3
   437.6
   473.1
   488.5
   377.9
   444.8
   435.5
   441.3
   438.1
   508.2
   510.8
   553.9
   569.0
   569.0
   545.3
   569.0
   569.0
   569.0
   569.1
   569.0
   422.7
   569.0
   569.1
   569.2
   422.7
   569.1
   422.7
   422.7
   569.2
   422.7
   569.1
   569.3
   422.7
   569.3
   569.1
   569.2
   569.2
   569.1
   569.2
   423.0
   569.3
   569.1
   569.3
   569.1
   423.0
   556.3
   569.2
   569.0
   569.0
   422.8
   569.0
   569.0
   569.1
   569.0
   569.4
   569.1
   422.6
   422.6
   422.6
   422.6
   569.1
   569.1
   569.1
   569.1
   569.0
   569.0
   568.9
   569.0
   569.0
   422.8
   422.7
   422.7
   422.7
   422.7
   444.2
   422.7
   422.7
   569.0
   422.7
   513.8
   493.3
   422.7
   470.0
   474.2
   507.5
   422.8
   537.2
   525.1
   536.1
   569.0
   569.1
   569.0
   422.8
   569.0
   422.7
   422.7
   422.7
   422.7
   422.7
   422.7
   422.7
   422.7
   422.7
   422.8
   569.1
   422.8
   422.8
   569.2
   569.0
   569.1
   569.1
   569.1
   547.1
   569.3
   422.8
   423.0
   423.0
   569.0
   422.8
   422.8
   422.8
   569.1
   569.1
   569.2
   422.9
   569.0
   569.1
   422.8
   569.1
   422.8
   569.1
   569.1
   569.1
   569.3
   556.1
   569.0
   569.1
   422.7
   422.7
   422.7
   422.7
   422.7
   422.7
   511.4
   402.8
   471.2
   459.2
   298.4
   431.3
   426.6
   405.1
   488.7
   525.0
   422.8
   517.2
   422.8
   422.8
   569.1
   569.1
   422.8
   569.1
   422.8
   422.8
   569.1
   569.1
   422.8
   569.1
   569.3
   569.1
   422.8
   422.7
   422.8
   422.6
   569.1
   422.6
   422.8
   423.0
   569.1
   569.1
   422.8
   423.0
   422.8
   569.1
   569.1
   569.1
   569.1
   422.9
   569.1
   569.3
   569.1
   569.1
   569.2
   569.1
   563.6
   569.1
   569.1
   569.1
   569.2
   569.2
   569.0
   569.4
   569.2
   569.1
   569.1
   569.1
   569.0
   569.1
   498.4
   569.1
   569.0
   422.8
   569.1
   569.2
   569.3
   464.8
   569.2
   569.1
   444.2
   569.2
   569.1
   569.1
   422.5
   422.7
   422.7
   569.1
   525.0
   448.0
   504.3
   507.4
   511.3
   525.3
   422.7
   422.7
   422.7
   422.8
   564.7
   569.2
   569.2
   569.1
   569.2
   569.3
   569.2
   422.8
   569.3
   569.1
   422.8
   422.8
   569.1
   422.6
   422.6
   422.6
   423.0
   569.2
   423.0
   423.0
   422.8
   569.3
   569.3
   552.8
   569.1
   569.2
   569.2
   569.4
   569.4
   569.2
   569.4
   569.1
   561.4
   569.0
   569.2
   569.0
   569.1
   422.9
   569.2
   569.1
   569.1
   569.1
   422.8
   422.6
   569.1
   422.9
   568.8
   422.6
   532.8
   444.2
   569.2
   532.8
   569.0
   569.1
   422.8
   569.1
   422.7
   422.7
   510.1
   501.8
   469.4
   455.1
   490.5
   451.7
   331.5
   507.2
   438.8
   403.4
   495.8
   509.8
   422.8
   569.2
   422.8
   569.3
   422.8
   422.8
   422.8
   422.7
   569.1
   569.0
   569.1
   569.2
   569.1
   422.7
   422.8
   569.1
   569.1
   422.6
   422.6
   422.6
   422.6
   569.4
   569.3
   569.3
   422.8
   422.8
   422.8
   422.8
   569.2
   569.3
   569.0
   422.7
   569.2
   569.1
   569.1
   569.3
   569.1
   569.2
   422.8
   422.8
   569.1
   569.1
   569.1
   569.1
   569.1
   422.9
   422.9
   422.8
   422.6
   422.8
   422.9
   422.9
   569.1
   569.2
   569.1
   569.0
   422.8
   422.8
   487.1
   440.6
   422.7
   449.5
   495.1
   539.6
   422.8
   422.8
   422.8
   569.0
   569.0
   569.1
   569.0
   569.1
   569.1
   569.2
   569.2
   569.1
   422.7
   422.7
   422.7
   422.7
   422.7
   422.8
   422.8
   569.2
   569.2
   569.4
   423.0
   569.1
   569.1
   569.4
   423.0
   569.2
   569.4
   569.2
   569.3
   569.4
   569.2
   569.4
   422.7
   422.7
   422.7
   422.8
   422.8
   422.8
   422.8
   569.0
   557.3
   422.8
   422.8
   422.8
   422.8
   422.8
   422.8
   422.8
   569.2
   569.2
   569.2
   569.2
   550.9
   569.3
   569.1
   569.2
   569.2
   569.3
   568.8
   569.2
   568.8
   568.9
   568.9
   568.8
   539.2
   495.7
   423.0
   569.3
   569.1
   569.2
   569.0
   569.0
   422.7
   422.7
   501.8
   466.7
   459.0
   536.5
   515.3
   569.1
   569.1
   569.1
   422.8
   569.0
   569.1
   423.0
   569.1
   422.9
   422.8
   569.2
   569.1
   458.6
   569.1
   569.1
   569.1
   569.2
   422.8
   569.1
   569.3
   569.1
   569.3
   422.9
   569.2
   569.2
   423.0
   569.2
   423.0
   569.1
   569.2
   569.2
   569.1
   569.1
   422.9
   422.9
   569.0
   569.1
   569.0
   569.0
   495.8
   569.2
   422.7
   569.1
   568.9
   569.1
   569.2
   422.7
   422.9
   569.1
   569.2
   569.1
   569.1
   569.2
   569.1
   569.1
   547.2
   569.1
   569.0
   568.8
   569.0
   423.0
   569.3
   568.8
   569.1
   569.0
   423.0
   532.0
   521.0
   452.4
   466.0
   382.8
   428.8
   531.2
   504.8
   450.8
   538.1
   569.1
   422.7
   422.8
   423.0
   422.8
   422.9
   422.9
   422.9
   422.9
   422.8
   458.6
   422.8
   569.1
   422.8
   422.8
   569.1
   569.1
   569.2
   569.2
   569.3
   569.1
   569.3
   569.0
   569.1
   471.3
   569.1
   569.1
   569.2
   569.2
   569.2
   569.0
   569.1
   569.0
   569.2
   422.8
   569.1
   569.1
   422.7
   422.7
   422.7
   422.7
   569.0
   569.1
   422.7
   422.7
   422.7
   569.1
   569.2
   569.3
   569.2
   422.9
   422.9
   422.8
   569.1
   569.1
   422.9
   422.8
   422.9
   569.3
   423.0
   423.0
   538.0
   530.0
   549.7
   467.6
   499.9
   471.3
   493.5
   298.7
   436.3
   441.0
   414.3
   442.1
   439.4
   422.7
   448.6
   422.7
   422.7
   422.7
   422.8
   422.8
   422.8
   423.0
   423.0
   569.2
   569.2
   422.8
   569.1
   569.1
   422.8
   569.3
   569.3
   533.6
   568.8
   569.2
   569.2
   569.2
   569.1
   569.2
   569.1
   569.1
   569.1
   569.1
   569.2
   422.9
   422.9
   544.7
   569.3
   569.1
   569.1
   569.2
   569.3
   569.2
   569.2
   569.1
   422.8
   569.1
   422.7
   422.9
   422.7
   422.7
   422.7
   569.1
   569.0
   569.1
   569.2
   569.1
   569.2
   569.1
   569.2
   569.3
   422.8
   569.2
   422.9
   422.8
   422.7
   422.9
   422.9
   559.0
   422.7
   560.5
   525.5
   545.7
   391.6
   517.0
   427.8
   535.7
   514.2
   481.9
   422.5
   568.9
   422.7
   422.7
   569.4
   423.0
   569.4
   569.2
   569.3
   423.0
   569.3
   422.8
   569.2
   422.8
   569.1
   423.0
   569.1
   569.3
   569.4
   569.3
   569.1
   423.0
   423.0
   423.0
   423.0
   569.1
   569.1
   569.2
   569.1
   569.2
   422.8
   569.1
   569.2
   569.3
   422.7
   569.1
   569.2
   422.8
   569.1
   569.0
   569.0
   422.8
   422.9
   422.9
   422.9
   569.1
   569.1
   496.1
   422.8
   422.8
   552.6
   569.2
   569.2
   569.1
   569.2
   422.8
   422.8
   422.8
   569.2
   422.7
   569.2
   422.7
   422.7
   422.7
   422.8
   554.9
   520.8
   422.8
   413.7
   475.5
   445.0
   367.1
   453.6
   457.0
   500.9
   421.4
   569.1
   422.5
   522.0
   569.1
   569.1
   422.5
   569.4
   569.3
   423.0
   423.0
   444.2
   422.8
   569.3
   569.3
   549.5
   549.5
   444.2
   569.1
   569.1
   569.1
   569.3
   423.0
   535.2
   423.0
   423.0
   569.0
   569.4
   569.4
   569.2
   569.2
   569.3
   422.9
   422.7
   569.2
   569.1
   422.8
   569.1
   569.2
   422.7
   422.7
   569.0
   569.1
   422.8
   422.8
   422.8
   569.2
   569.1
   569.1
   569.1
   569.3
   568.7
   569.3
   569.2
   569.1
   423.0
   569.3
   422.7
   569.3
   555.0
   422.7
   569.2
   569.2
   568.9
   569.2
   422.8
   569.3
   569.1
   569.1
   569.1
   556.0
   569.0