# vtk DataFile Version 3.0
divides
ASCII
DATASET UNSTRUCTURED_GRID
POINTS       7410 float
        1749.654        1245.991         350.853
        5762.539        1166.425         376.742
        4550.087        1072.962         332.271
        7710.739        1134.804         395.786
        8156.886        1073.223         330.122
       11194.435        1430.218         368.980
       10777.418         534.524         261.585
       13984.242        1269.279         396.243
       11603.764        1472.969         408.629
       14491.429        1256.070         351.299
       18442.618        1084.044         363.635
       17334.964        1354.450         364.309
       20451.224        1327.521         403.824
       21321.464         553.262         280.388
       20870.456        1279.989         354.120
       25124.587         992.143         376.698
       23814.500        1237.942         351.048
       26206.948        1009.164         369.004
       27410.474        1098.290         335.379
       29731.114        1187.116         378.107
       30810.032         493.565         246.335
       30157.925        1168.084         344.612
       34312.053        1359.858         381.105
       33441.293        1386.115         367.435
       33063.330         516.955         277.676
       34713.248        1354.059         371.989
       37006.237         974.126         319.317
       38855.485         528.331         267.796
       38262.130        1246.102         352.574
       37482.827         997.830         363.813
       40621.549        1090.465         375.584
       41768.204        1295.553         358.951
       43345.797        1245.178         353.201
       45869.125         933.309         330.937
       46632.311         915.428         312.282
       50608.198         956.465         368.945
       49873.968        1337.931         366.319
       49244.624         621.849         272.156
       51703.705         941.434         375.237
       52906.322        1059.908         330.382
       55394.965        1076.244         377.475
       55874.977        1042.271         328.569
       59065.726        1127.249         340.558
       61829.684        1116.232         384.279
       60574.452        1038.442         330.963
       63418.314        1218.389         391.349
       64404.154         599.007         273.510
       63844.456        1195.734         350.539
       67272.423        1267.447         358.726
       66763.267         568.582         272.347
       67701.595        1298.064         402.938
       70386.701        1395.055         372.948
       69853.014         522.907         280.504
       72142.669         952.040         316.839
       74635.343        1142.578         388.075
       72658.627         986.246         369.482
       75641.732         487.485         252.549
       75110.937        1106.421         338.336
       76366.988        1222.341         361.874
       78116.893        1196.080         409.737
       78601.856        1173.253         349.153
       79525.738         626.575         438.941
         806.132        1704.558         413.255
        1582.319        3311.133         435.212
         664.167        2702.433         433.194
        3244.902        1686.130         432.759
        4619.666        2000.639         322.992
        3657.473        2671.116         438.300
        5121.933        1628.202         404.439
        6936.353        2578.209         443.429
        7411.049        1648.348         408.224
        9156.586        3017.031         445.558
        9145.590        1301.235         415.960
       12609.340        1928.919         448.952
       11143.277        2289.080         278.343
       12914.184        2413.902         456.105
        9985.292        3103.647         453.697
       16043.604        1893.608         434.126
       17857.043        1858.756         387.147
       15774.730        2429.845         445.424
       17426.800        2872.369         425.903
       20255.133        1785.936         400.422
       20621.511        3679.204         456.851
       21522.235        2391.597         428.899
       21470.576        1641.189         381.013
       19987.372        2569.133         440.437
       22660.716        2468.064         433.249
       23093.737        1635.325         387.794
       24025.477        4211.665         465.071
       24868.040        2444.354         434.934
       24493.432        1684.587         408.935
       27310.388        2542.704         421.557
       29112.234        1609.713         445.793
       29744.752        2606.121         465.617
       26821.964        1568.076         401.471
       30229.911        2289.526         436.999
       35259.394        1701.198         455.049
       37621.092        1615.678         360.936
       36944.645        2415.648         430.153
       39031.135        1753.489         403.242
       38100.232        4231.873         463.646
       39495.943        2911.116         443.430
       40864.431        2872.652         441.799
       42295.872        3302.287         444.938
       42798.388        2565.879         434.381
       42509.912        1860.689         398.862
       41173.310        1773.187         400.295
       44436.626        1669.587         407.668
       46450.469        2168.998         429.985
       47338.222        1454.587         389.388
       46218.492        1377.080         351.569
       50457.112        1667.686         368.369
       50476.589        2308.797         438.761
       49342.957        1762.382         417.087
       49073.602        2489.534         451.656
       53008.239        1995.725         322.522
       54345.356        1535.269         443.266
       51931.748        2341.400         440.523
       52278.546        1503.026         405.533
       55941.305        2816.659         436.985
       57427.568        1587.398         447.615
       55395.895        1758.364         322.523
       59093.115        2104.942         322.730
       59766.510        1573.780         414.552
       56840.842        2929.902         469.126
       61480.525        2514.336         444.438
       60212.233        1893.231         322.730
       61170.177        1565.382         414.089
       62984.975        2378.177         450.448
       63202.193        1656.156         395.685
       63890.001        2034.750         322.867
       67591.691        2062.261         322.841
       67105.060        2132.212         322.703
       67387.449        2815.814         445.042
       67977.780        1488.149         435.022
       66913.972        1909.737         322.868
       71026.131        1754.699         426.725
       71308.605        2403.816         449.336
       70119.060        2214.920         322.841
       73736.146        1540.861         439.684
       75360.883        2572.742         425.507
       73405.918        2355.578         454.600
       76907.458        1672.691         452.507
       79261.849        1669.279         353.287
       78674.761        2620.301         416.853
         620.256        3749.196         431.538
        4296.186        4188.868         460.339
        3640.712        3233.295         322.992
        2696.353        3594.189         447.188
        5729.083        3275.873         281.414
        5911.320        2207.567         322.992
        6264.164        3622.215         322.910
        6200.771        5686.195         465.980
        8756.847        3490.278         469.334
        5215.274        4180.098         446.176
        7777.874        4681.971         463.628
        9428.424        3862.807         322.910
        9072.257        4116.495         469.285
       10813.575        4124.138         469.308
        9729.933        2947.554         448.761
       14179.155        2840.666         323.056
       15059.970        4953.353         462.744
       16286.434        3221.809         455.783
       14505.483        3255.182         322.717
       12200.393        4033.875         469.512
       15723.049        5157.043         467.874
       17757.652        4364.644         448.121
       17958.738        3013.234         419.437
       21728.655        4220.658         450.674
       23617.116        4416.679         464.075
       21062.796        4082.690         453.979
       26757.912        3973.948         454.102
       26575.724        3012.840         439.615
       24505.735        4354.258         458.341
       26790.916        2674.125         426.873
       28783.705        2997.942         468.990
       27213.501        3769.303         454.621
       31685.737        4112.338         468.963
       31063.260        2881.279         464.222
       30556.091        2314.028         431.515
       30875.187        2454.778         454.329
       33660.366        4173.086         453.127
       33861.227        2589.026         432.545
       32531.798        4024.856         452.611
       33057.829        2258.394         406.097
       35245.634        2583.814         458.642
       35442.924        4312.870         460.969
       35266.437        2210.469         460.329
       41689.893        3798.501         454.537
       40211.388        3931.133         322.879
       41090.584        4183.068         446.307
       38637.041        4651.981         461.698
       44482.079        4477.793         453.161
       44963.026        2971.709         448.274
       44275.716        2530.610         434.023
       46821.571        2452.924         431.022
       47653.104        3991.233         458.903
       45214.353        4447.894         460.017
       47329.911        3023.551         444.575
       49532.637        3068.048         455.651
       48161.496        3828.228         426.264
       51160.167        4463.499         453.357
[...]
POINT_DATA       7410
SCALARS height float 1
LOOKUP_TABLE default
   350.9
   376.7
   332.3
   395.8
   330.1
   369.0
   261.6
   396.2
   408.6
   351.3
   363.6
   364.3
   403.8
   280.4
   354.1
   376.7
   351.0
   369.0
   335.4
   378.1
   246.3
   344.6
   381.1
   367.4
   277.7
   372.0
   319.3
   267.8
   352.6
   363.8
   375.6
   359.0
   353.2
   330.9
   312.3
   368.9
   366.3
   272.2
   375.2
   330.4
   377.5
   328.6
   340.6
   384.3
   331.0
   391.3
   273.5
   350.5
   358.7
   272.3
   402.9
   372.9
   280.5
   316.8
   388.1
   369.5
   252.5
   338.3
   361.9
   409.7
   349.2
   438.9
   413.3
   435.2
   433.2
   432.8
   323.0
   438.3
   404.4
   443.4
   408.2
   445.6
   416.0
   449.0
   278.3
   456.1
   453.7
   434.1
   387.1
   445.4
   425.9
   400.4
   456.9
   428.9
   381.0
   440.4
   433.2
   387.8
   465.1
   434.9
   408.9
   421.6
   445.8
   465.6
   401.5
   437.0
   455.0
   360.9
   430.2
   403.2
   463.6
   443.4
   441.8
   444.9
   434.4
   398.9
   400.3
   407.7
   430.0
   389.4
   351.6
   368.4
   438.8
   417.1
   451.7
   322.5
   443.3
   440.5
   405.5
   437.0
   447.6
   322.5
   322.7
   414.6
   469.1
   444.4
   322.7
   414.1
   450.4
   395.7
   322.9
   322.8
   322.7
   445.0
   435.0
   322.9
   426.7
   449.3
   322.8
   439.7
   425.5
   454.6
   452.5
   353.3
   416.9
   431.5
   460.3
   323.0
   447.2
   281.4
   323.0
   322.9
   466.0
   469.3
   446.2
   463.6
   322.9
   469.3
   469.3
   448.8
   323.1
   462.7
   455.8
   322.7
   469.5
   467.9
   448.1
   419.4
   450.7
   464.1
   454.0
   454.1
   439.6
   458.3
   426.9
   469.0
   454.6
   469.0
   464.2
   431.5
   454.3
   453.1
   432.5
   452.6
   406.1
   458.6
   461.0
   460.3
   454.5
   322.9
   446.3
   461.7
   453.2
   448.3
   434.0
   431.0
   458.9
   460.0
   444.6
   455.7
   426.3
   453.4
   469.0
   322.5
   322.5
   322.6
   322.5
   322.7
   322.8
   322.8
   322.7
   441.2
   322.9
   469.0
   322.9
   322.7
   322.9
   322.9
   468.9
   322.8
   322.7
   322.8
   322.8
   469.4
   469.2
   322.6
   464.9
   469.3
   463.7
   468.6
   378.0
   383.9
   462.5
   395.6
   216.7
   445.1
   415.5
   469.2
   467.2
   469.3
   462.3
   322.9
   322.8
   322.7
   322.9
   322.8
   451.4
   458.1
   461.5
   465.5
   457.6
   323.2
   469.5
   469.7
   323.2
   323.2
   469.1
   322.7
   322.7
   322.7
   469.0
   469.3
   469.3
   446.1
   469.3
   469.2
   469.0
   469.3
   322.9
   418.4
   323.0
   467.9
   322.9
   465.1
   469.0
   469.0
   468.9
   469.1
   322.6
   322.8
   322.6
   322.7
   408.7
   408.7
   408.7
   408.7
   469.1
   469.1
   322.7
   322.7
   469.3
   322.6
   469.3
   322.6
   322.6
   322.6
   323.0
   323.0
   413.7
   429.0
   392.5
   452.7
   469.2
   469.3
   457.1
   322.8
   322.9
   322.6
   469.0
   469.2
   469.1
   469.3
   469.3
   469.1
   469.1
   469.4
   469.3
   469.2
   469.4
   469.3
   323.1
   469.5
   323.2
   323.2
   323.1
   469.1
   323.1
   469.2
   469.0
   326.9
   469.0
   469.3
   469.0
   323.0
   469.2
   469.2
   322.9
   322.9
   322.9
   322.9
   468.9
   469.2
   464.3
   468.9
   322.6
   322.6
   322.6
   322.6
   322.6
   322.6
   469.2
   469.1
   469.0
   469.0
   469.4
   469.0
   469.1
   469.2
   469.2
   469.2
   469.3
   469.3
   469.3
   469.1
   469.2
   469.2
   323.0
   469.2
   469.3
   427.4
   469.2
   460.1
   463.3
   323.0
   399.5
   430.3
   443.4
   397.2
   437.6
   430.1
   465.8
   466.5
   461.9
   469.2
   469.2
   322.9
   322.9
   322.6
   469.2
   469.4
   469.1
   469.1
   469.1
   469.2
   469.1
   323.0
   323.0
   323.0
   323.0
   323.1
   323.1
   323.1
   469.0
   326.9
   469.2
   323.2
   323.2
   326.9
   468.9
   469.1
   469.2
   469.5
   469.0
   469.0
   469.2
   469.3
   322.6
   469.1
   322.7
   322.6
   322.6
   469.0
   322.6
   468.9
   468.9
   469.0
   469.0
   322.6
   469.0
   469.1
   469.1
   469.2
   469.1
   469.1
   469.0
   469.2
   469.1
   469.3
   469.4
   469.2
   469.4
   469.1
   440.3
   469.2
   469.4
   469.5
   469.5
   469.1
   323.0
   323.0
   323.0
   453.7
   469.0
   434.7
   462.2
   401.6
   396.0
   400.5
   425.0
   443.2
   412.9
   422.7
   469.1
   322.7
   469.3
   469.6
   469.2
   469.2
   322.6
   322.6
   322.6
   469.2
   396.2
   469.2
   469.3
   469.3
   469.1
   469.4
   469.1
   322.9
   322.9
   322.9
   468.9
   468.9
   469.0
   468.9
   469.0
   469.0
   469.0
   423.7
   469.1
   469.1
   469.1
   409.2
   322.8
   322.8
   322.8
   322.7
   468.9
   469.0
   469.0
   469.1
   469.0
   469.0
   322.6
   322.8
   322.8
   469.0
   469.0
   469.3
   322.8
   469.1
   322.8
   469.4
   322.8
   469.3
   469.3
   469.3
   322.8
   322.9
   322.9
   469.5
   469.1
   469.1
   469.3
   469.1
   419.2
   429.0
   450.8
   425.5
   451.5
   444.0
   434.4
   469.4
   468.9
   322.7
   468.9
   322.7
   322.8
   322.7
   340.8
   469.2
   322.8
   322.8
   322.8
   322.8
   322.7
   469.2
   469.2
   469.2
   469.2
   469.1
   374.3
   469.3
   322.9
   469.3
   469.1
   445.1
   469.3
   322.8
   469.2
   469.3
   469.0
   469.1
   469.2
   469.0
   469.1
   322.8
   409.2
   409.2
   409.2
   469.2
   322.7
   322.8
   469.1
   469.2
   469.2
   322.7
   469.2
   469.5
   469.4
   469.1
   469.0
   469.1
   469.0
   469.0
   322.8
   469.1
   322.8
   322.8
   469.0
   469.1
   469.1
   469.1
   469.2
   469.1
   322.8
   322.8
   469.1
   469.1
   465.5
   467.5
   469.0
   422.3
   438.1
   450.0
   264.9
   428.3
   452.8
   384.3
   468.9
   462.6
   469.0
   468.9
   468.9
   468.9
   322.8
   322.8
   340.8
   340.8
   340.8
   322.7
   469.2
   410.7
   469.1
   322.7
   374.3
   469.2
   469.1
   322.5
   322.8
   469.2
   322.7
   322.5
   469.0
   469.0
   469.0
   469.2
   469.2
   469.2
   469.1
   469.0
   469.3
   469.1
   469.2
   323.0
   469.1
   322.8
   469.0
   469.0
   468.9
   469.0
   322.7
   322.7
   322.7
   322.8
   469.1
   469.1
   469.0
   322.8
   469.1
   469.1
   469.1
   469.1
   469.3
   469.4
   469.0
   469.0
   469.0
   469.1
   469.1
   469.1
   469.1
   469.0
   322.7
   322.7
   322.7
   322.7
   376.8
   332.8
   381.5
   418.7
   406.1
   410.7
   439.4
   467.8
   408.5
   467.1
   469.0
   469.0
   469.1
   469.0
   469.3
   469.3
   469.1
   322.8
   322.7
   469.2
   322.7
   322.7
   469.1
   374.3
   469.1
   469.4
   322.9
   385.7
   322.5
   469.2
   322.5
   322.6
   322.7
   469.1
   322.8
   469.0
   469.0
   322.8
   322.7
   322.8
   469.1
   322.8
   469.1
   469.0
   322.8
   469.0
   469.0
   469.0
   469.0
   468.9
   322.8
   322.8
   322.8
   322.8
   469.0
   469.3
   469.4
   469.3
   469.0
   469.1
   469.0
   466.0
   469.0
   469.0
   469.0
   469.3
   469.0
   322.7
   469.1
   448.6
   322.7
   420.1
   419.4
   322.8
   426.8
   468.5
   464.1
   445.6
   469.0
   469.2
   469.0
   322.8
   469.0
   469.1
   469.2
   469.1
   322.8
   322.7
   322.7
   322.7
   322.7
   469.1
   469.1
   469.1
   469.1
   374.3
   469.2
   322.9
   469.1
   469.1
   322.9
   322.9
   322.9
   469.3
   469.0
   469.1
   469.0
   452.9
   322.8
   322.8
   409.3
   332.5
   322.8
   322.7
   322.8
   322.8
   322.8
   469.1
   469.4
   322.8
   469.0
   469.0
   469.0
   469.3
   469.2
   469.2
   463.3
   469.2
   322.8
   469.0
   469.1
   469.0
   322.7
   469.0
   469.1
   469.1
   469.0
   322.7
   322.7
   322.7
   322.7
   322.7
   409.9
   409.2
   444.3
   440.9
   321.6
   417.6
   387.4
   441.9
   446.4
   322.8
   469.4
   322.9
   469.4
   322.8
   322.9
   322.9
   322.8
   322.8
   469.0
   469.1
   469.3
   469.2
   469.1
   469.2
   469.1
   469.1
   469.3
   469.2
   436.7
   469.0
   469.0
   469.1
   322.8
   469.1
   469.1
   469.1
   322.8
   322.7
   322.8
   469.2
   357.8
   469.2
   322.7
   469.0
   469.0
   469.0
   469.1
   322.8
   469.1
   469.1
   469.1
   469.0
   469.1
   322.8
   322.8
   322.8
   322.8
   469.1
   469.1
   469.2
   322.8
   322.7
   469.0
   468.9
   469.3
   469.0
   469.0
   469.3
   322.7
   441.1
   439.8
   390.7
   434.9
   322.8
   322.8
   322.9
   322.9
   322.9
   323.0
   322.9
   322.9
   469.3
   469.3
   469.0
   469.1
   469.0
   469.0
   469.0
   469.2
   469.2
   469.0
   469.1
   469.1
   469.1
   469.1
   469.1
   469.2
   469.2
   469.2
   469.1
   469.1
   322.7
   322.8
   322.8
   322.8
   332.5
   322.9
   469.1
   409.3
   469.2
   322.7
   322.7
   322.7
   322.7
   322.6
   322.8
   469.4
   322.8
   322.8
   469.0
   469.1
   469.0
   469.0
   469.1
   469.1
   322.7
   469.1
   469.0
   469.0
   469.0
   469.3
   469.1
   322.7
   322.7
   469.3
   469.2
   445.1
   422.1
   438.3
   323.0
   412.3
   443.0
   420.4
   454.9
   457.2
   461.4
   469.3
   469.3
   469.2
   469.3
   469.2
   469.3
   469.3
   469.3
   340.7
   469.3
   322.7
   469.1
   401.2
   469.0
   469.0
   322.9
   469.2
   322.9
   322.9
   393.6
   469.1
   469.1
   322.7
   469.2
   322.7
   322.7
   469.1
   469.3
   469.2
   469.2
   391.4
   322.9
   409.3
   322.6
   322.6
   322.7
   322.7
   322.6
   322.8
   469.1
   469.0
   322.8
   469.0
   322.7
   469.1
   322.7
   322.7
   322.7
   469.6
   469.5
   468.9
   469.4
   469.1
   469.2
   322.8
   468.8
   322.8
   322.8
   469.0
   469.1
   469.0
   469.4
   323.0
   469.3
   469.1
   323.0
   323.0
   323.0
   413.3
   421.0
   387.9
   268.5
   416.6
   431.2
   444.1
   390.1
   392.7
   469.3
   469.2
   456.1
   469.1
   469.2
   469.5
   322.9
   469.4
   469.2
   469.3
   469.3
   469.4
   322.7
   469.0
   469.3
   469.2
   355.1
   469.2
   469.1
   469.1
   469.0
   469.3
   469.4
   469.0
   469.1
   469.4
   469.1
   469.1
   469.3
   322.8
   322.7
   322.6
   322.6
   322.6
   322.6
   322.6
   322.6
   322.6
   469.2
   322.8
   469.2
   322.8
   322.6
   468.9
   322.8
   468.9
   468.9
   468.9
   322.8
   469.0
   322.8
   469.1
   322.8
   443.5
   468.6
   469.1
   469.1
   469.2
   469.1
   469.2
   469.2
   469.3
   469.3
   469.2
   469.2
   412.7
   440.6
   416.9
   422.2
   323.0
   435.4
   323.0
   323.0
   323.0
   469.2
   469.2
   467.5
   322.9
   469.0
   469.2
   419.4
   323.0
   469.2
   401.2
   340.7
   469.0
   323.0
   469.2
   469.0
   469.2
   469.0
   323.0
   469.1
   469.1
   469.1
   323.0
   469.0
   469.1
   469.4
   322.7
   469.3
   469.2
   469.1
   469.0
   469.1
   469.0
   469.4
   469.0
   322.8
   322.7
   322.7
   322.7
   469.2
   469.1
   322.8
   469.2
   469.1
   322.8
   322.8
   322.8
   469.3
   469.0
   322.6
   425.4
   468.9
   322.6
   469.1
   322.9
   469.1
   469.2
   322.6
   322.8
   469.2
   469.1
   469.4
   469.4
   469.2
   322.7
   469.2
   469.2
   322.7
   437.5
   427.6
   438.8
   331.0
   421.7
   406.0
   415.0
   424.4
   459.0
   464.3
   323.0
   468.1
   469.1
   323.0
   469.1
   322.7
   469.2
   469.1
   469.3
   469.0
   323.0
   322.9
   469.0
   469.0
   322.8
   469.4
   468.9
   323.0
   322.8
   322.7
   469.0
   469.2
   469.0
   469.0
   469.0
   469.4
   469.2
   469.1
   322.8
   469.0
   469.1
   469.0
   469.2
   469.3
   456.9
   469.0
   469.0
   469.0
   469.0
   469.0
   468.9
   322.6
   468.9
   322.6
   322.6
   469.0
   407.5
   322.9
   322.8
   469.1
   469.2
   469.1
   469.1
   322.8
   469.2
   469.1
   322.8
   322.7
   322.7
   465.4
   469.0
   453.2
   469.2
   439.0
   449.2
   376.7
   436.8
   416.6
   422.6
   323.0
   323.0
   323.0
   323.0
   322.7
   469.4
   469.0
   469.1
   322.8
   469.1
   322.7
   468.9
   469.1
   469.0
   469.1
   322.7
   469.1
   469.1
   455.7
   322.8
   469.0
   469.0
   469.2
   469.2
   469.3
   322.8
   469.1
   322.7
   469.4
   322.7
   469.2
   469.1
   322.7
   469.0
   322.7
   469.0
   322.7
   322.7
   468.9
   468.9
   425.4
   469.0
   425.4
   322.6
   407.5
   469.1
   469.0
   322.6
   469.2
   469.0
   322.8
   322.8
   322.7
   322.7
   322.7
   322.7
   469.1
   469.1
   322.6
   466.3
   454.2
   431.0
   460.2
   404.7
   407.6
   451.1
   403.7
   455.7
   455.5
   456.9
   469.0
   469.0
   466.4
   322.7
   322.7
   469.1
   469.1
   469.1
   322.7
   322.7
   322.7
   469.1
   322.8
   322.8
   469.2
   469.0
   469.3
   469.1
   469.1
   322.9
   322.9
   322.9
   469.1
   469.4
   322.8
   322.8
   322.8
   322.8
   322.7
   322.7
   322.7
   322.7
   322.7
   322.7
   322.6
   469.2
   469.1
   469.1
   322.6
   322.6
   322.6
   322.6
   468.9
   407.5
   322.6
   322.6
   322.6
   322.7
   469.0
   469.0
   469.0
   469.1
   469.0
   322.7
   322.6
   322.6
   459.3
   468.8
   469.3
   402.0
   411.9
   434.4
   441.0
   354.8
   415.2
   415.7
   409.0
   411.6
   445.9
   450.1
   466.6
   469.0
   469.1
   467.0
   469.0
   469.0
   469.0
   469.0
   469.0
   322.7
   469.0
   469.1
   469.3
   322.7
   469.2
   322.7
   322.7
   469.3
   322.7
   469.2
   469.3
   322.7
   469.4
   469.1
   469.3
   469.2
   469.1
   469.2
   323.0
   469.3
   469.1
   469.4
   469.1
   323.0
   456.2
   469.2
   469.1
   469.0
   322.8
   469.0
   468.9
   469.1
   469.0
   469.5
   469.0
   322.6
   322.6
   322.6
   322.6
   469.0
   469.0
   469.0
   469.1
   469.0
   469.0
   469.1
   469.0
   469.0
   322.8
   322.7
   322.7
   322.7
   322.7
   355.0
   322.7
   322.7
   469.0
   322.7
   447.8
   439.5
   322.7
   432.3
   435.2
   456.1
   322.8
   462.7
   456.2
   462.1
   469.0
   469.1
   469.0
   322.8
   469.0
   322.7
   322.7
   322.7
   322.7
   322.7
   322.7
   322.7
   322.7
   322.7
   322.7
   469.2
   322.8
   322.8
   469.2
   469.0
   469.1
   469.1
   469.1
   447.1
   469.3
   322.8
   323.0
   323.0
   469.0
   322.8
   322.8
   322.8
   469.1
   469.2
   469.3
   322.9
   469.0
   469.1
   322.8
   469.0
   322.8
   469.1
   469.1
   469.0
   469.4
   456.2
   469.0
   469.1
   322.7
   322.7
   322.7
   322.7
   322.7
   322.7
   453.8
   376.2
   427.2
   423.2
   285.1
   404.1
   400.8
   388.2
   440.6
   469.0
   322.8
   452.8
   322.8
   322.8
   469.2
   469.1
   322.8
   469.2
   322.8
   322.8
   469.0
   469.0
   322.8
   469.1
   469.3
   469.2
   322.8
   322.6
   322.8
   322.6
   469.2
   322.6
   322.8
   323.0
   469.1
   469.1
   322.8
   323.0
   322.8
   469.1
   469.1
   469.1
   469.0
   322.8
   469.1
   469.4
   469.1
   469.1
   469.2
   469.1
   463.6
   469.1
   469.1
   469.0
   469.3
   469.3
   469.0
   469.5
   469.2
   469.1
   469.1
   469.1
   469.0
   469.1
   398.4
   469.1
   469.0
   322.8
   469.1
   469.2
   469.5
   379.0
   469.2
   469.1
   355.0
   469.2
   469.1
   469.2
   322.5
   322.7
   322.7
   469.0
   468.9
   414.2
   453.3
   446.9
   451.9
   458.3
   322.7
   322.7
   322.7
   322.8
   464.7
   469.2
   469.2
   469.1
   469.3
   469.3
   469.1
   322.8
   469.5
   469.0
   322.8
   322.8
   469.1
   322.6
   322.6
   322.6
   323.0
   469.3
   323.0
   323.0
   322.7
   469.4
   469.3
   452.9
   469.1
   469.2
   469.3
   469.5
   469.5
   469.1
   469.6
   469.2
   461.4
   469.0
   469.1
   469.0
   469.1
   322.9
   469.2
   469.2
   469.2
   469.1
   322.8
   322.6
   469.1
   322.9
   468.9
   322.6
   468.9
   355.0
   469.2
   468.9
   469.0
   469.1
   322.8
   469.1
   322.7
   322.7
   455.0
   444.4
   426.0
   414.5
   444.5
   424.6
   313.8
   446.7
   407.5
   379.3
   441.0
   450.2
   322.7
   469.2
   322.7
   469.4
   322.8
   322.8
   322.8
   322.7
   469.1
   469.1
   469.1
   469.1
   469.1
   322.7
   322.8
   469.1
   469.2
   322.6
   322.6
   322.6
   322.6
   469.4
   469.4
   469.3
   322.7
   322.7
   322.7
   322.7
   469.2
   469.2
   469.0
   322.7
   469.3
   469.1
   469.1
   469.4
   469.1
   469.3
   322.8
   322.8
   469.2
   469.1
   469.0
   469.0
   469.2
   322.9
   322.9
   322.8
   322.7
   322.8
   322.9
   322.9
   469.1
   469.2
   469.1
   469.0
   322.8
   322.8
   440.9
   408.0
   322.7
   422.7
   442.5
   469.1
   322.8
   322.8
   322.7
   469.0
   469.0
   469.1
   469.0
   469.1
   469.1
   469.1
   469.1
   469.1
   322.7
   322.7
   322.7
   322.7
   322.7
   322.8
   322.8
   469.1
   469.1
   469.5
   323.0
   469.1
   469.1
   469.5
   323.0
   469.1
   469.5
   469.1
   469.3
   469.5
   469.1
   469.5
   322.7
   322.7
   322.7
   322.8
   322.8
   322.8
   322.8
   469.0
   457.3
   322.8
   322.8
   322.8
   322.8
   322.8
   322.8
   322.8
   469.2
   469.3
   469.1
   469.1
   450.9
   469.4
   469.1
   469.3
   469.1
   469.4
   468.9
   469.2
   468.8
   468.9
   468.9
   468.8
   439.2
   395.7
   323.0
   469.3
   469.1
   469.2
   469.0
   469.0
   322.7
   322.7
   445.0
   433.3
   421.8
   466.7
   452.7
   469.1
   469.1
   469.1
   322.8
   469.0
   469.1
   323.0
   469.3
   322.8
   322.8
   469.1
   469.1
   376.5
   469.1
   469.0
   469.0
   469.2
   322.8
   469.1
   469.3
   469.1
   469.4
   322.9
   469.2
   469.1
   323.0
   469.2
   323.0
   469.1
   469.2
   469.1
   469.1
   469.1
   322.9
   322.9
   469.0
   469.1
   469.0
   468.9
   395.8
   469.2
   322.7
   469.1
   468.9
   469.2
   469.2
   322.7
   322.9
   469.1
   469.1
   469.1
   469.1
   469.2
   469.1
   469.1
   447.3
   469.0
   469.0
   468.9
   469.0
   323.0
   469.3
   468.8
   469.1
   469.0
   323.0
   469.0
   462.9
   416.3
   427.3
   366.8
   401.0
   456.8
   440.9
   412.5
   462.6
   469.1
   322.7
   322.8
   323.0
   322.8
   322.8
   322.8
   322.8
   322.9
   322.8
   376.5
   322.8
   469.0
   322.8
   322.8
   469.0
   469.2
   469.2
   469.2
   469.4
   469.1
   469.4
   469.0
   469.1
   371.3
   469.2
   469.1
   469.2
   469.1
   469.2
   469.0
   469.1
   469.0
   469.1
   322.8
   469.1
   469.1
   322.7
   322.7
   322.7
   322.7
   469.0
   469.1
   322.7
   322.7
   322.7
   469.1
   469.2
   469.3
   469.2
   322.9
   322.9
   322.8
   469.1
   469.1
   322.8
   322.8
   322.8
   469.3
   323.0
   323.0
   465.0
   468.6
   465.3
   431.2
   451.7
   433.6
   442.6
   290.8
   412.9
   410.4
   393.3
   409.9
   409.9
   322.7
   395.2
   322.7
   322.7
   322.7
   322.8
   322.9
   322.7
   323.0
   323.0
   469.2
   469.2
   322.8
   469.1
   469.0
   322.8
   469.4
   469.3
   433.7
   468.9
   469.2
   469.2
   469.1
   469.1
   469.2
   469.1
   469.1
   469.2
   469.2
   469.1
   322.9
   322.9
   444.7
   469.3
   469.2
   469.1
   469.1
   469.3
   469.1
   469.2
   469.1
   322.8
   469.1
   322.7
   322.9
   322.7
   322.7
   322.7
   469.1
   468.9
   469.1
   469.2
   469.1
   469.3
   469.0
   469.2
   469.4
   322.8
   469.3
   322.8
   322.8
   322.8
   322.8
   322.8
   468.9
   322.7
   469.3
   457.5
   463.8
   352.0
   453.2
   402.2
   467.2
   452.9
   441.6
   322.5
   469.0
   322.7
   322.7
   469.4
   322.9
   469.4
   469.3
   469.3
   322.9
   469.4
   322.8
   469.2
   322.8
   469.1
   323.0
   469.1
   469.4
   469.4
   469.3
   469.1
   323.0
   323.0
   323.0
   323.0
   469.1
   469.1
   469.2
   469.1
   469.2
   322.8
   469.1
   469.3
   469.3
   322.7
   469.0
   469.2
   322.8
   469.0
   469.0
   469.0
   322.8
   322.9
   322.9
   322.9
   469.0
   469.0
   396.1
   322.8
   322.8
   452.6
   469.2
   469.2
   469.1
   469.2
   322.8
   322.8
   322.8
   469.2
   322.7
   469.2
   322.7
   322.7
   322.7
   322.7
   467.2
   456.4
   322.7
   390.3
   434.2
   418.8
   358.7
   426.5
   425.4
   460.8
   401.2
   469.1
   322.5
   456.9
   469.0
   469.0
   322.5
   469.4
   469.4
   322.9
   355.0
   322.8
   469.3
   469.3
   469.0
   469.0
   355.0
   469.2
   469.2
   469.2
   469.3
   323.0
   435.2
   323.0
   323.0
   469.1
   469.4
   469.4
   469.2
   469.2
   469.4
   322.9
   322.7
   469.2
   469.1
   322.8
   469.2
   469.2
   322.7
   322.7
   469.0
   469.0
   322.8
   322.8
   322.8
   469.2
   469.1
   469.1
   469.2
   469.4
   468.8
   469.4
   469.2
   469.1
   322.9
   469.3
   322.7
   469.4
   455.1
   322.7
   469.2
   469.3
   468.9
   469.2
   322.7
   469.4
   469.1
   469.1
   469.2
   456.0
   469.1
   469.0