# vtk DataFile Version 3.0
divides
ASCII
DATASET UNSTRUCTURED_GRID
POINTS       7420 float
        1760.928        1339.858         363.468
        5792.471        1202.696         383.470
        4516.975        1215.124         351.525
        7805.224        1216.607         408.503
        8173.783        1188.813         345.959
       11193.710        1616.391         388.017
       10763.176         552.538         269.614
       14066.204        1357.126         407.519
       11481.252        1623.822         424.539
       14494.865        1303.283         357.784
       18462.037        1109.027         368.223
       17296.535        1550.842         384.978
       20575.170        1459.025         419.457
       21353.936         587.714         289.227
       20879.861        1450.846         373.404
       25187.232        1047.411         386.077
       23796.373        1358.912         365.647
       26182.422        1034.088         374.215
       27432.177        1211.539         350.740
       29913.903        1420.162         405.711
       30840.804         530.607         264.871
       30100.056        1447.322         376.622
       34444.964        1613.687         407.778
       33436.562        1427.437         373.279
       33064.551         515.779         277.488
       34617.290        1620.998         399.765
       37048.135        1172.023         346.927
       38857.419         530.575         268.905
       38257.876        1284.553         358.249
       37337.628        1155.797         386.645
       40575.274        1142.039         383.867
       41790.357        1466.182         378.424
       43352.348        1301.132         360.910
       45850.116         966.728         337.143
       46692.159        1151.261         346.858
       50624.179         971.625         373.000
       49938.570        1653.415         399.541
       49189.716         717.928         293.493
       51665.330         974.388         382.172
       52924.042        1236.564         354.427
       55486.226        1174.960         392.071
       55859.991        1167.196         346.457
       59051.452        1247.076         357.257
       61871.994        1162.098         392.874
       60540.161        1196.318         353.901
       63618.642        1458.077         421.908
       64452.604         670.815         291.108
       63806.053        1490.949         386.717
       67281.640        1428.752         379.796
       66750.121         585.697         277.053
       67592.280        1427.250         421.098
       70384.132        1664.552         402.836
       69832.767         542.262         286.439
       72151.013        1007.722         326.796
       74728.175        1245.025         404.407
       72618.142        1028.661         378.562
       75662.736         510.664         264.558
       75100.421        1237.067         357.398
       76266.022        1507.358         396.802
       78278.825        1343.156         431.303
       78627.682        1323.365         370.207
       79494.497         667.849         541.168
         851.881        1710.492         472.780
        1588.693        3271.668         511.643
         711.494        2666.977         506.905
        3380.417        1671.859         519.016
        5097.648        3148.808         559.482
        3572.913        2791.652         548.196
        5034.916        1619.625         446.187
        6960.759        2559.516         535.487
        7545.926        1638.096         455.954
        9414.257        3415.785         563.259
        8986.515        1350.802         471.592
       12148.717        1945.401         540.250
       11085.873        2651.472         509.706
       12606.515        2336.305         571.169
        9685.641        3382.697         596.465
       16448.445        1902.629         517.139
       17695.302        1874.390         422.259
       16106.708        2313.064         549.167
       17421.357        2846.768         532.255
       20384.343        1789.330         435.807
       20606.675        3779.436         587.277
       21498.641        2369.300         519.452
       21358.848        1672.803         421.483
       20230.406        2364.900         523.778
       22644.988        2477.983         519.973
       23155.157        1650.508         425.014
       24079.901        4659.195         591.974
       24875.882        2448.848         522.333
       24401.039        1697.724         456.843
       27208.919        3026.975         531.633
       29427.277        1610.988         556.401
       30154.557        2789.805         593.229
       26871.405        1570.611         442.053
       30312.717        2630.184         602.443
       35261.489        1700.872         592.582
       37506.883        1571.695         419.214
       36965.019        2284.003         537.243
       39081.705        1748.406         438.768
       38084.228        4629.066         559.741
       39729.755        3104.351         523.816
       40847.416        2890.370         554.884
       42305.707        3333.558         561.076
       42661.974        2464.708         527.186
       42418.087        1860.018         449.169
       41268.421        1784.956         449.068
       44419.958        1672.825         451.237
       46522.265        1954.701         537.092
       47171.161        1417.284         451.656
       46395.178        1357.512         411.370
       50193.413        1757.270         418.329
       50363.007        2200.701         535.391
       49551.309        1785.152         493.409
       49220.418        2382.353         613.435
       53078.046        2587.793         539.476
       54173.398        1535.658         550.862
       52089.787        2217.300         542.622
       52402.746        1509.531         450.012
       55986.732        3283.300         556.955
       57410.242        1586.802         548.175
       53644.657        2701.715         587.290
       59244.858        2897.763         528.120
       59807.699        1570.110         486.272
       56249.939        3281.729         611.519
       61443.866        2477.870         554.969
       59594.950        2802.280         565.683
       61088.783        1559.037         467.870
       63268.546        2122.234         589.453
       63438.510        1656.310         455.442
       63971.707        2327.695         590.104
       68572.414        3044.847         591.432
       66169.063        3854.766         613.234
       67423.604        3253.744         576.392
       67897.664        1521.670         496.317
       64790.394        2669.310         622.508
       70870.854        1794.580         498.572
       71029.042        2257.958         575.991
       69450.736        2964.846         615.782
       73939.176        1553.165         522.026
       75498.230        3020.986         545.507
       73340.583        2384.402         568.994
       76826.897        1670.455         572.558
       79229.800        1672.287         420.483
       78677.555        2503.943         493.527
         658.084        3782.689         495.597
        4491.822        4374.913         656.691
        4758.284        3282.478         651.159
        2844.334        3497.672         545.772
        5196.666        3298.646         510.430
        7411.899        5489.350         601.246
        6227.498        6096.821         607.940
        9201.272        3527.588         616.773
        4902.190        4527.192         566.723
        8102.353        4947.472         602.678
        9428.429        3862.788         622.930
        9078.097        4108.851         769.187
       10479.147        3978.388         769.394
        9533.067        3472.389         533.637
       11688.133        2840.150         600.480
       15153.862        5390.894         590.964
       16533.190        3277.784         567.522
       14208.105        4473.649         553.769
       11708.179        4277.937         609.201
       15461.226        5391.276         633.052
       17764.099        4392.855         557.202
       17870.207        3124.556         461.106
       21699.508        4353.067         574.059
       23897.168        4689.322         614.001
       21029.831        4124.243         578.063
       27065.842        4269.175         590.135
       27027.774        3081.876         564.151
       24259.300        4689.902         598.477
       27165.488        3078.211         509.948
       28783.847        2997.932         768.981
       27213.491        3768.995         754.609
       31685.413        4112.035         769.073
       30650.107        2885.846         605.627
       30401.037        2807.864         528.787
       30430.545        2841.137         521.195
       33802.764        4603.101         579.241
       33900.843        2572.325         507.219
       32299.823        4415.724         578.089
       33083.644        2351.068         436.573
       35492.945        2661.518         577.128
       35148.296        4571.604         610.449
       35220.004        2184.677         596.586
       41688.814        3798.297         590.421
       40093.780        5707.176         617.255
       41242.599        4300.505         579.993
       38530.176        4727.217         614.107
       44737.242        4850.002         579.885
       45081.215        2958.517         554.047
       44176.258        2613.386         499.805
       46789.291        2473.484         502.408
       47964.992        4245.437         604.313
       45002.056        4786.366         606.620
       47492.703        3052.106         562.044
       49032.643        3103.623         589.979
       48169.385        4165.358         596.744
       51162.209        4907.106         583.028
       48451.467        4281.033         618.326
[...]
POINT_DATA       7420
SCALARS height float 1
LOOKUP_TABLE default
   363.5
   383.5
   351.5
   408.5
   346.0
   388.0
   269.6
   407.5
   424.5
   357.8
   368.2
   385.0
   419.5
   289.2
   373.4
   386.1
   365.6
   374.2
   350.7
   405.7
   264.9
   376.6
   407.8
   373.3
   277.5
   399.8
   346.9
   268.9
   358.2
   386.6
   383.9
   378.4
   360.9
   337.1
   346.9
   373.0
   399.5
   293.5
   382.2
   354.4
   392.1
   346.5
   357.3
   392.9
   353.9
   421.9
   291.1
   386.7
   379.8
   277.1
   421.1
   402.8
   286.4
   326.8
   404.4
   378.6
   264.6
   357.4
   396.8
   431.3
   370.2
   541.2
   472.8
   511.6
   506.9
   519.0
   559.5
   548.2
   446.2
   535.5
   456.0
   563.3
   471.6
   540.2
   509.7
   571.2
   596.5
   517.1
   422.3
   549.2
   532.3
   435.8
   587.3
   519.5
   421.5
   523.8
   520.0
   425.0
   592.0
   522.3
   456.8
   531.6
   556.4
   593.2
   442.1
   602.4
   592.6
   419.2
   537.2
   438.8
   559.7
   523.8
   554.9
   561.1
   527.2
   449.2
   449.1
   451.2
   537.1
   451.7
   411.4
   418.3
   535.4
   493.4
   613.4
   539.5
   550.9
   542.6
   450.0
   557.0
   548.2
   587.3
   528.1
   486.3
   611.5
   555.0
   565.7
   467.9
   589.5
   455.4
   590.1
   591.4
   613.2
   576.4
   496.3
   622.5
   498.6
   576.0
   615.8
   522.0
   545.5
   569.0
   572.6
   420.5
   493.5
   495.6
   656.7
   651.2
   545.8
   510.4
   601.2
   607.9
   616.8
   566.7
   602.7
   622.9
   769.2
   769.4
   533.6
   600.5
   591.0
   567.5
   553.8
   609.2
   633.1
   557.2
   461.1
   574.1
   614.0
   578.1
   590.1
   564.2
   598.5
   509.9
   769.0
   754.6
   769.1
   605.6
   528.8
   521.2
   579.2
   507.2
   578.1
   436.6
   577.1
   610.4
   596.6
   590.4
   617.3
   580.0
   614.1
   579.9
   554.0
   499.8
   502.4
   604.3
   606.6
   562.0
   590.0
   596.7
   583.0
   618.3
   560.4
   622.5
   622.5
   622.5
   622.8
   622.8
   622.8
   613.5
   573.2
   584.7
   642.1
   622.9
   622.7
   528.6
   546.6
   769.0
   622.9
   622.7
   622.9
   530.1
   636.1
   641.6
   575.9
   604.6
   769.3
   640.4
   595.3
   421.8
   444.8
   578.8
   433.3
   221.4
   539.2
   457.5
   599.9
   655.1
   769.3
   604.7
   622.9
   622.9
   622.8
   622.9
   622.9
   600.4
   600.4
   628.2
   641.1
   611.8
   623.2
   769.2
   682.7
   623.2
   623.2
   769.0
   622.7
   622.7
   622.7
   769.0
   769.3
   769.1
   746.1
   631.8
   769.2
   705.8
   629.8
   622.9
   666.3
   623.0
   700.7
   622.9
   645.5
   769.0
   769.0
   768.9
   769.0
   622.6
   622.8
   622.6
   622.7
   657.1
   657.1
   657.1
   657.1
   769.1
   769.1
   622.7
   622.7
   769.2
   622.7
   769.1
   622.7
   622.7
   622.7
   588.2
   581.7
   485.1
   504.7
   432.6
   571.8
   769.2
   769.2
   622.2
   622.9
   622.9
   622.7
   769.0
   769.1
   769.1
   769.2
   769.2
   769.0
   769.1
   769.3
   769.3
   769.2
   684.8
   769.3
   623.1
   672.8
   623.2
   623.2
   623.1
   769.0
   623.1
   769.0
   769.0
   624.4
   769.0
   769.4
   769.0
   623.0
   769.1
   769.1
   622.9
   622.9
   622.9
   622.9
   769.0
   769.1
   642.8
   768.9
   622.7
   622.7
   622.7
   622.7
   622.7
   622.7
   769.1
   769.0
   769.1
   769.1
   769.2
   769.0
   769.0
   769.2
   769.1
   769.2
   769.2
   769.2
   769.2
   769.1
   769.2
   769.0
   623.0
   769.1
   769.0
   727.4
   769.1
   609.2
   598.5
   623.0
   445.8
   514.2
   543.7
   426.6
   530.1
   503.7
   650.2
   652.4
   615.0
   769.2
   769.2
   622.9
   622.9
   622.7
   769.1
   769.1
   769.0
   769.0
   769.1
   769.1
   769.1
   623.0
   623.0
   623.0
   623.0
   623.1
   623.1
   623.1
   769.0
   624.4
   769.2
   623.2
   623.2
   624.4
   769.0
   769.2
   769.1
   769.3
   769.0
   769.0
   769.1
   769.1
   622.7
   769.0
   622.7
   622.7
   622.6
   768.9
   622.6
   768.9
   768.9
   769.0
   769.0
   622.6
   769.1
   769.1
   750.8
   769.1
   769.1
   769.1
   769.1
   769.1
   769.1
   769.3
   769.2
   769.3
   769.2
   769.2
   740.3
   769.2
   769.2
   769.3
   769.4
   769.2
   623.0
   623.0
   623.0
   564.0
   634.1
   541.0
   614.0
   457.2
   430.6
   427.7
   470.7
   547.3
   459.5
   497.0
   769.1
   622.7
   769.2
   654.2
   769.2
   769.1
   622.7
   622.7
   622.7
   769.1
   696.2
   769.1
   769.3
   769.3
   755.1
   769.2
   769.2
   622.9
   622.9
   622.9
   769.0
   769.0
   769.0
   769.0
   769.0
   769.1
   769.0
   723.7
   769.1
   769.1
   769.0
   657.4
   622.8
   622.8
   622.8
   622.8
   769.0
   769.0
   769.0
   769.0
   769.0
   769.1
   622.6
   622.8
   622.8
   750.8
   769.1
   769.2
   622.8
   750.8
   622.8
   769.2
   622.8
   769.2
   769.2
   769.2
   622.8
   622.9
   622.9
   769.2
   769.2
   769.2
   769.1
   769.1
   521.8
   519.2
   544.5
   514.8
   609.9
   618.3
   599.4
   660.1
   738.0
   622.7
   769.0
   622.7
   622.8
   622.7
   630.0
   769.1
   622.8
   622.8
   622.8
   622.8
   622.7
   769.1
   769.1
   769.2
   769.1
   769.2
   643.5
   769.2
   622.9
   769.2
   755.1
   745.1
   769.1
   622.8
   769.1
   769.1
   769.0
   769.0
   769.1
   694.0
   769.1
   622.8
   657.4
   657.4
   657.4
   769.1
   622.8
   622.8
   769.1
   769.0
   769.1
   622.7
   769.1
   769.2
   769.1
   769.0
   750.8
   750.8
   769.1
   769.1
   622.8
   769.1
   622.8
   622.8
   769.1
   769.2
   769.2
   745.0
   769.2
   769.1
   622.9
   622.9
   769.0
   769.1
   648.3
   603.4
   769.0
   480.2
   513.4
   564.8
   270.9
   502.8
   600.2
   607.1
   769.0
   629.1
   659.1
   769.0
   738.0
   738.0
   622.8
   622.8
   630.0
   630.0
   630.0
   622.7
   769.1
   689.4
   755.1
   622.7
   643.5
   769.1
   700.6
   622.5
   622.8
   769.1
   622.8
   622.5
   694.0
   694.0
   694.0
   769.1
   769.1
   769.1
   769.1
   769.0
   769.3
   769.0
   769.1
   623.0
   769.1
   622.8
   769.0
   769.0
   769.0
   769.0
   622.8
   622.7
   622.7
   622.8
   769.1
   769.1
   769.1
   622.8
   769.1
   769.1
   769.2
   769.2
   769.2
   769.2
   745.0
   745.0
   745.0
   769.1
   769.2
   769.1
   701.7
   769.0
   622.9
   622.8
   602.0
   622.8
   522.2
   361.1
   404.8
   472.3
   462.4
   462.3
   530.4
   645.5
   502.7
   614.9
   769.0
   769.1
   769.1
   769.1
   769.2
   769.1
   769.1
   622.8
   622.7
   769.1
   622.7
   622.7
   769.2
   643.5
   769.2
   769.2
   622.9
   655.1
   622.5
   769.1
   622.5
   622.6
   622.8
   769.0
   622.8
   750.1
   769.1
   622.8
   622.7
   622.8
   769.1
   622.8
   769.1
   769.1
   622.8
   769.0
   758.6
   769.0
   769.0
   769.0
   622.8
   622.8
   622.8
   622.8
   769.1
   769.1
   769.2
   769.1
   769.1
   769.0
   769.1
   766.0
   769.0
   769.0
   769.0
   769.2
   769.0
   622.7
   769.0
   576.6
   622.8
   495.4
   474.4
   611.0
   493.3
   618.6
   608.2
   555.5
   769.0
   769.1
   769.0
   622.8
   769.0
   769.0
   769.1
   769.1
   622.8
   622.7
   622.7
   622.7
   622.7
   769.2
   769.2
   769.2
   769.1
   643.5
   769.2
   622.9
   769.1
   700.6
   622.9
   622.9
   622.9
   769.1
   769.1
   769.0
   769.0
   741.6
   622.8
   622.8
   657.3
   626.6
   622.8
   622.7
   622.8
   622.8
   622.8
   769.1
   769.2
   622.8
   769.0
   769.0
   758.6
   769.2
   769.1
   769.1
   763.4
   769.1
   622.8
   769.0
   769.1
   769.0
   622.8
   769.0
   769.1
   769.1
   769.0
   622.7
   622.8
   587.4
   622.7
   614.6
   479.6
   451.1
   553.3
   534.7
   343.1
   450.6
   425.1
   525.4
   599.2
   623.0
   769.2
   622.9
   769.3
   622.8
   622.9
   622.8
   622.8
   622.8
   769.1
   769.1
   769.1
   769.2
   769.1
   769.2
   769.1
   769.2
   769.2
   769.1
   736.6
   769.0
   769.1
   769.1
   622.8
   769.0
   769.0
   769.0
   622.8
   622.7
   622.8
   769.1
   638.8
   769.1
   622.7
   758.6
   769.0
   769.0
   769.0
   622.8
   769.0
   769.1
   769.0
   769.0
   769.1
   622.8
   622.8
   622.8
   622.8
   769.1
   703.2
   769.1
   622.8
   622.7
   769.1
   769.1
   769.2
   769.1
   769.0
   662.5
   622.7
   534.4
   510.0
   429.3
   531.0
   623.0
   573.5
   622.9
   622.9
   622.9
   623.0
   622.9
   622.9
   769.3
   769.3
   769.1
   769.1
   769.1
   769.1
   769.1
   769.2
   769.1
   769.1
   769.1
   769.2
   769.1
   769.1
   769.1
   769.1
   769.1
   769.1
   769.1
   769.0
   622.8
   622.8
   622.8
   622.8
   626.6
   622.9
   769.0
   657.3
   769.1
   622.6
   622.7
   622.7
   622.7
   622.6
   622.8
   769.1
   622.8
   622.8
   769.0
   769.0
   769.0
   769.0
   769.0
   769.1
   622.7
   769.1
   703.2
   703.2
   703.7
   769.1
   769.1
   622.7
   622.8
   661.6
   769.0
   599.8
   479.2
   546.3
   623.1
   442.5
   551.3
   483.7
   577.6
   592.5
   601.2
   769.2
   769.3
   769.3
   769.3
   769.3
   769.2
   769.3
   769.3
   629.9
   769.1
   622.8
   769.2
   654.2
   769.1
   769.1
   622.9
   769.1
   622.9
   622.9
   693.6
   769.1
   742.0
   622.8
   769.1
   622.8
   622.8
   769.1
   769.1
   769.2
   769.1
   691.3
   622.9
   657.3
   622.6
   622.6
   622.8
   622.8
   622.6
   622.8
   769.0
   769.0
   622.9
   768.9
   622.7
   769.0
   622.7
   622.7
   622.7
   769.3
   769.2
   768.9
   769.2
   703.7
   769.1
   622.8
   703.7
   622.8
   622.8
   769.1
   769.0
   744.5
   769.3
   623.0
   769.3
   769.2
   594.7
   601.8
   623.1
   482.1
   494.5
   451.9
   293.9
   460.1
   529.6
   562.4
   431.9
   440.1
   769.3
   769.3
   603.3
   769.2
   769.3
   769.3
   622.9
   769.3
   769.3
   769.2
   769.1
   769.1
   622.8
   769.1
   769.2
   769.2
   637.3
   769.1
   769.1
   769.1
   769.1
   769.2
   769.2
   742.0
   769.1
   769.2
   769.1
   769.1
   769.3
   622.7
   622.6
   622.6
   622.6
   622.6
   622.6
   622.6
   622.6
   622.6
   769.2
   622.9
   769.1
   622.8
   622.6
   768.9
   622.9
   768.9
   768.9
   768.9
   622.8
   703.7
   622.8
   769.0
   622.8
   743.5
   744.5
   769.1
   769.1
   769.2
   769.1
   769.1
   769.2
   769.3
   769.2
   769.1
   604.5
   480.1
   553.7
   474.6
   478.6
   563.5
   526.3
   623.1
   580.2
   623.1
   769.2
   769.3
   767.5
   622.9
   769.0
   769.3
   690.5
   623.0
   769.1
   654.2
   629.9
   769.1
   623.0
   769.2
   769.0
   769.1
   769.0
   623.1
   769.1
   769.1
   769.1
   623.1
   769.1
   742.0
   769.2
   622.8
   769.1
   769.2
   769.2
   716.4
   769.1
   769.2
   769.3
   769.0
   622.8
   622.7
   622.7
   622.7
   769.1
   769.1
   622.8
   769.1
   769.1
   622.8
   622.8
   622.8
   769.2
   769.0
   622.6
   663.7
   768.9
   622.6
   768.9
   622.9
   768.9
   703.4
   622.6
   622.8
   703.4
   769.1
   769.2
   769.2
   769.1
   622.8
   769.1
   769.1
   622.8
   527.8
   489.8
   534.1
   391.2
   542.7
   436.9
   457.5
   492.5
   601.0
   610.7
   623.0
   668.6
   769.2
   623.0
   769.0
   622.8
   769.3
   769.0
   769.3
   769.1
   623.0
   622.8
   769.1
   768.9
   622.8
   769.3
   768.9
   623.1
   622.9
   622.8
   769.1
   769.1
   716.4
   716.4
   702.8
   769.2
   769.2
   769.1
   622.8
   769.1
   769.1
   769.0
   769.1
   769.1
   756.9
   769.0
   769.1
   769.0
   769.0
   769.0
   768.9
   622.6
   769.0
   622.6
   622.6
   768.9
   656.6
   622.9
   622.8
   703.4
   703.4
   703.4
   703.4
   622.8
   769.1
   769.1
   622.8
   622.8
   622.8
   664.8
   769.0
   578.2
   769.1
   554.6
   571.2
   393.7
   525.3
   465.6
   486.7
   623.0
   623.0
   623.0
   623.1
   622.8
   769.3
   769.0
   769.1
   622.8
   769.0
   622.7
   769.0
   769.1
   769.0
   769.1
   622.7
   769.1
   769.1
   702.8
   622.9
   702.8
   702.8
   769.2
   769.1
   769.3
   622.9
   769.1
   622.7
   769.2
   622.7
   769.2
   769.1
   622.7
   769.1
   622.7
   769.1
   622.6
   622.7
   768.9
   769.0
   663.7
   768.9
   663.7
   622.6
   656.6
   769.1
   769.1
   622.6
   769.1
   769.1
   622.8
   622.8
   622.8
   622.8
   622.8
   622.8
   769.1
   769.1
   622.7
   668.3
   557.8
   492.0
   647.0
   435.0
   551.7
   602.4
   482.9
   623.1
   597.1
   620.4
   769.1
   769.1
   678.3
   622.8
   622.8
   769.1
   769.1
   769.1
   622.7
   622.7
   622.7
   769.1
   622.9
   622.9
   769.1
   769.1
   769.2
   769.1
   769.1
   623.0
   623.0
   623.0
   769.1
   769.1
   622.9
   622.9
   622.9
   622.9
   622.8
   622.7
   622.7
   622.7
   622.7
   622.7
   622.6
   769.1
   769.1
   769.2
   622.6
   622.6
   622.6
   622.6
   769.0
   656.6
   622.6
   622.6
   622.6
   622.8
   769.0
   769.0
   769.0
   769.0
   769.0
   622.7
   622.7
   622.7
   623.9
   594.0
   769.1
   450.0
   457.4
   511.2
   535.0
   398.3
   471.3
   447.9
   470.4
   463.7
   568.3
   567.3
   679.2
   769.0
   769.1
   642.7
   769.0
   769.0
   769.0
   769.1
   769.0
   622.7
   769.0
   769.1
   769.2
   622.7
   769.1
   622.7
   622.7
   769.1
   622.7
   769.1
   769.2
   622.7
   769.2
   769.1
   769.1
   769.1
   769.1
   769.2
   623.0
   769.3
   769.1
   769.3
   769.1
   623.0
   756.3
   769.0
   769.0
   769.0
   622.8
   769.0
   769.0
   769.2
   769.1
   769.2
   769.1
   622.6
   622.6
   622.6
   622.6
   769.1
   769.1
   768.9
   769.1
   769.0
   768.9
   768.9
   768.9
   769.1
   622.7
   622.8
   622.7
   622.7
   622.7
   635.6
   622.8
   622.8
   769.1
   622.7
   600.3
   541.5
   602.1
   506.8
   507.4
   562.7
   611.2
   628.4
   608.5
   619.3
   769.0
   769.1
   769.0
   622.8
   769.1
   622.7
   622.7
   622.7
   622.7
   622.7
   622.7
   622.7
   622.7
   622.7
   622.8
   769.1
   622.8
   622.8
   769.1
   769.0
   769.1
   769.1
   769.1
   747.1
   769.3
   622.8
   623.0
   623.0
   769.0
   622.8
   622.8
   622.8
   769.1
   769.2
   769.2
   622.9
   769.1
   769.2
   622.8
   769.1
   622.8
   769.1
   769.1
   769.1
   769.1
   756.1
   769.1
   769.1
   622.8
   622.8
   622.8
   622.8
   576.4
   605.5
   567.1
   419.4
   502.8
   484.9
   301.5
   455.1
   445.7
   416.3
   535.8
   592.6
   622.8
   598.8
   622.8
   622.8
   769.1
   769.1
   622.8
   769.1
   622.8
   622.8
   736.3
   769.2
   622.9
   769.2
   769.2
   769.1
   622.9
   622.7
   622.8
   622.7
   769.1
   622.7
   622.8
   623.0
   769.1
   769.1
   622.8
   623.0
   622.8
   622.9
   769.1
   769.0
   769.0
   622.9
   769.2
   769.2
   769.1
   769.2
   769.2
   769.2
   763.6
   769.2
   769.1
   769.1
   769.1
   769.1
   769.2
   769.2
   769.1
   769.1
   769.1
   769.1
   769.0
   769.1
   698.4
   769.1
   769.0
   622.8
   769.1
   769.2
   769.2
   650.7
   769.1
   769.1
   635.6
   769.2
   769.0
   769.1
   622.4
   622.8
   622.8
   769.1
   582.9
   474.0
   563.7
   578.5
   570.7
   609.8
   552.5
   622.7
   622.7
   622.8
   764.7
   769.1
   769.1
   769.0
   769.1
   769.2
   736.3
   622.8
   769.2
   736.3
   622.8
   622.9
   769.1
   622.7
   622.7
   622.7
   623.0
   769.1
   623.0
   623.0
   622.8
   769.2
   769.3
   752.8
   769.2
   769.2
   769.2
   769.3
   769.3
   769.2
   769.2
   769.1
   761.3
   769.1
   769.2
   769.1
   769.1
   622.9
   769.1
   769.1
   769.1
   769.1
   622.8
   622.6
   769.2
   622.9
   755.1
   622.6
   688.8
   635.6
   769.1
   688.8
   769.0
   769.1
   622.8
   769.1
   622.8
   622.7
   578.7
   583.5
   514.1
   496.1
   534.7
   469.7
   348.9
   583.9
   468.5
   425.3
   547.5
   578.5
   622.8
   769.1
   622.9
   769.2
   622.8
   622.8
   622.8
   622.7
   769.2
   769.0
   769.1
   769.1
   769.1
   622.7
   622.8
   769.0
   769.1
   622.7
   622.7
   622.7
   622.7
   769.3
   769.3
   769.3
   622.8
   622.8
   622.8
   622.8
   622.8
   769.2
   769.2
   769.2
   769.0
   622.7
   769.2
   769.1
   769.1
   769.2
   769.1
   769.2
   622.8
   622.8
   769.1
   769.1
   769.1
   769.1
   769.1
   622.9
   622.9
   622.8
   622.6
   622.8
   622.9
   622.9
   769.1
   769.1
   769.1
   769.0
   622.8
   622.8
   532.9
   464.9
   541.0
   469.9
   542.9
   620.4
   600.7
   622.8
   622.8
   769.0
   769.0
   769.0
   769.0
   769.1
   769.2
   769.2
   769.1
   769.1
   622.7
   622.7
   622.7
   622.7
   622.7
   622.8
   622.8
   769.2
   769.2
   769.3
   623.0
   769.1
   769.1
   769.3
   623.0
   769.2
   769.3
   769.2
   769.2
   769.3
   769.2
   769.3
   622.7
   622.7
   622.8
   622.8
   622.8
   622.8
   622.8
   769.0
   757.3
   622.9
   622.9
   622.9
   622.8
   622.8
   622.8
   622.8
   769.2
   769.2
   769.1
   769.2
   750.9
   769.2
   769.2
   769.1
   769.1
   769.2
   768.8
   769.2
   755.1
   768.9
   768.8
   768.8
   739.2
   695.7
   623.0
   769.2
   769.1
   769.2
   769.0
   769.0
   541.6
   622.7
   562.7
   492.3
   495.1
   623.2
   593.6
   769.1
   769.1
   769.1
   622.8
   769.0
   769.0
   623.0
   769.2
   622.9
   622.8
   769.2
   769.1
   644.3
   769.1
   769.1
   769.1
   769.1
   622.8
   769.1
   769.2
   769.1
   769.2
   622.9
   769.2
   769.3
   623.0
   769.2
   623.0
   769.1
   769.2
   769.2
   769.2
   769.2
   622.9
   622.9
   769.1
   769.2
   769.0
   769.0
   695.9
   769.2
   622.7
   769.0
   768.9
   769.2
   769.2
   622.7
   622.9
   769.1
   769.2
   769.1
   769.1
   769.2
   769.1
   769.1
   747.3
   769.0
   769.1
   768.8
   769.0
   623.0
   769.2
   768.8
   769.1
   769.0
   623.0
   602.0
   594.5
   484.0
   498.0
   394.1
   452.8
   640.1
   580.5
   492.6
   641.3
   769.0
   622.7
   622.8
   623.0
   622.8
   622.9
   622.9
   622.9
   622.9
   622.8
   644.3
   622.8
   769.1
   622.8
   622.8
   769.1
   769.1
   769.2
   769.2
   769.3
   769.1
   769.3
   769.0
   769.1
   671.3
   769.1
   769.2
   769.2
   769.2
   769.2
   769.0
   769.2
   769.0
   769.1
   622.8
   769.1
   769.0
   622.7
   622.7
   622.7
   622.8
   768.9
   769.1
   622.7
   622.7
   622.8
   769.2
   769.2
   769.2
   769.2
   622.9
   622.9
   622.8
   769.1
   769.1
   622.9
   622.8
   622.9
   769.2
   623.0
   623.0
   637.5
   599.4
   667.8
   497.8
   540.7
   497.7
   536.2
   300.5
   450.9
   467.5
   427.5
   471.7
   464.9
   622.9
   500.4
   622.8
   602.8
   622.8
   622.8
   622.9
   622.7
   623.0
   623.0
   769.2
   769.1
   622.8
   769.1
   769.1
   622.8
   769.3
   769.2
   733.6
   768.8
   769.3
   769.3
   769.2
   769.1
   769.1
   769.2
   769.1
   769.1
   769.1
   769.1
   622.9
   622.9
   744.6
   769.3
   769.1
   769.2
   769.2
   769.2
   769.1
   769.1
   769.1
   622.8
   769.1
   622.8
   622.9
   622.8
   622.8
   622.8
   769.1
   769.1
   769.1
   769.2
   769.1
   769.2
   769.2
   769.2
   769.2
   622.8
   769.2
   622.9
   622.8
   622.9
   622.9
   622.9
   691.7
   622.8
   694.0
   610.2
   650.2
   426.1
   586.8
   449.4
   616.0
   585.9
   510.7
   622.5
   768.9
   622.7
   622.7
   769.3
   623.0
   769.3
   769.2
   769.2
   623.0
   769.2
   622.8
   769.1
   622.8
   769.1
   623.0
   769.1
   769.3
   769.3
   769.3
   769.1
   623.0
   623.0
   623.0
   623.0
   769.1
   769.1
   769.2
   769.2
   769.1
   622.9
   769.1
   769.1
   769.2
   622.8
   769.1
   769.2
   622.9
   769.1
   769.0
   769.0
   622.8
   622.9
   622.9
   622.9
   769.1
   769.1
   696.1
   622.8
   622.8
   752.6
   769.1
   769.1
   769.1
   769.1
   622.8
   622.8
   622.8
   769.1
   622.8
   769.1
   622.8
   622.8
   622.8
   622.8
   681.3
   587.1
   621.3
   429.8
   504.5
   463.4
   369.2
   472.2
   484.3
   545.7
   433.2
   769.0
   622.5
   601.7
   769.0
   769.0
   622.5
   769.2
   769.2
   623.0
   623.0
   635.7
   622.8
   769.2
   769.2
   698.8
   698.8
   635.7
   769.2
   769.1
   769.1
   769.2
   623.0
   735.2
   623.0
   623.0
   769.1
   769.3
   769.3
   769.2
   769.2
   769.2
   622.9
   622.7
   769.1
   769.2
   622.9
   769.1
   769.1
   622.8
   622.8
   769.0
   769.0
   622.8
   622.8
   622.8
   769.2
   769.1
   769.1
   769.1
   769.2
   768.7
   769.2
   769.1
   769.1
   623.0
   769.2
   622.7
   769.2
   755.0
   622.7
   769.2
   769.2
   768.9
   769.2
   622.8
   769.2
   769.0
   769.1
   769.0
   756.0