# vtk DataFile Version 3.0
divides
ASCII
DATASET UNSTRUCTURED_GRID
POINTS       9684 float
        1769.715        1413.017         372.247
        5680.404        1066.892         367.306
        4494.092        1313.369         363.570
        7849.693        1255.107         414.486
        8181.839        1243.918         353.224
       11194.463        1422.930         371.153
       10795.774         511.306         250.223
       13877.931        1155.333         386.111
       11609.790        1465.549         411.724
       14484.328        1158.513         341.957
       17212.852        1901.941         437.510
       18371.277         992.262         353.263
       20747.030        1641.365         438.421
       21406.455         643.435         302.568
       20893.027        1690.028         396.629
       25029.798         908.517         366.386
       23769.287        1539.672         384.505
       26307.437         907.045         356.198
       27449.783        1303.409         362.302
       29884.273        1382.386         402.974
       31036.156         765.756         320.012
       34331.696        1397.371         388.331
       33471.786        1119.795         338.896
       33117.400         464.872         257.244
       36753.304        1156.939         418.608
       34698.851        1394.110         379.136
       38842.521         513.294         260.175
       38266.888        1203.097         349.746
       37338.019        1155.371         388.155
       42679.178        1108.072         386.466
       40770.986         923.921         353.809
       43330.028        1110.501         338.490
       45888.924         898.502         326.912
       47670.106        1205.013         405.561
       50433.936         791.144         343.399
       48511.207        1194.908         394.562
       49889.930        1415.881         377.722
       51880.427         789.676         351.911
       52906.349        1060.178         332.349
       55462.896        1149.725         390.335
       55863.650        1136.699         343.348
       59089.215         930.054         313.431
       61935.600        1231.050         403.246
       60493.080        1413.083         380.596
       63498.514        1314.346         407.096
       64348.261         516.166         239.041
       63828.946        1314.961         368.120
       67272.307        1265.413         361.898
       66780.091         546.678         264.635
       67704.391        1294.760         407.013
       70383.265        1755.508         412.543
       69908.890         469.491         260.829
       72134.898         900.182         309.772
       74668.482        1179.150         397.715
       72702.185         940.612         366.073
       75643.764         489.728         253.711
       75106.997        1155.364         348.046
       76246.342        1562.913         404.744
       78352.796        1410.342         441.837
       78643.727        1416.622         382.769
       79470.878         699.054         615.637
         886.839        1715.026         516.435
        1622.883        3059.967         552.618
        3467.590        2558.072         601.590
         749.318        2638.641         562.749
        3398.455        1669.960         585.180
        4716.779        2233.914         539.964
        4866.028        1602.980         431.763
        7719.562        2797.588         570.460
        9082.816        1908.588         522.983
        7475.650        2165.146         528.855
        7666.765        1628.911         437.996
        9130.846        2977.198         600.160
        8844.766        1394.971         466.893
       12393.352        1936.647         498.242
       12567.874        2326.559         520.362
       10606.459        2153.527         392.034
       16994.761        1914.802         517.472
       17243.142        1918.097         436.586
       16944.921        2018.201         543.028
       17295.094        2252.849         559.994
       20683.182        1797.179         436.200
       20821.389        2328.803         557.340
       21355.800        2234.313         594.387
       21177.214        1724.198         464.135
       20596.746        2057.050         504.915
       24201.128        2062.167         494.065
       23860.509        3008.605         623.744
       22860.515        2342.074         602.580
       23288.148        1683.384         461.449
       24140.653        1734.746         444.907
       27314.279        2524.134         551.510
       29101.626        2317.859         630.586
       29002.335        1609.269         610.692
       27050.010        1579.771         420.785
       30487.819        1733.770         458.708
       30579.778        1169.238         551.063
       30216.103        2232.720         534.791
       32065.749        1996.932         396.071
       36017.557        1583.208         578.972
       37441.763        1546.617         393.736
       37001.149        2050.558         499.837
       38945.833        1762.063         383.680
       38072.943        4909.150         580.518
       39105.512        2588.441         446.429
       41878.466        1762.662         441.150
       44592.442        1639.319         404.054
       42876.457        3097.322         421.072
       48455.075        2941.082         615.961
       50313.601        2153.681         394.303
       49197.490        1746.484         498.454
       54590.012        1534.714         535.754
       52336.235        2023.776         432.797
       52345.101        1506.512         382.036
       56761.455        2773.818         568.715
       56691.302        1562.055         489.782
       54139.453        2435.180         595.911
       60310.695        1525.295         404.287
       58049.612        3367.486         465.736
       61524.929        2558.506         706.182
       60286.345        1784.090         468.907
       60988.463        1551.216         541.094
       62530.108        2788.729         624.529
       63162.261        1656.130         474.838
       63900.691        2073.078         401.902
       67437.433        3421.248         558.956
       68092.082        1927.176         456.264
       68013.788        1473.083         450.177
       70037.946        2305.938         547.601
       70720.783        1833.124         483.649
       70821.026        2149.429         539.486
       70200.375        1959.590         420.492
       73967.474        1554.880         502.606
       73832.751        3706.508         615.591
       73715.162        2219.147         544.714
       77010.348        1675.548         653.249
       79210.037        1674.142         461.808
       78679.958        2403.911         525.398
         662.643        3786.726         505.891
        5719.107        4313.725         540.153
        5504.544        3285.477         337.710
        3361.933        3845.207         603.684
        9075.913        5330.326         720.470
       10720.238        4083.460         682.307
       10025.088        3313.208         557.576
        8860.327        3725.979         592.442
       10621.488        2590.689         419.434
       12087.079        2840.233         545.370
       16645.757        3303.319         519.628
       11861.287        4202.019         572.310
       17694.146        4086.766         439.555
       15925.955        3894.225         594.444
       17918.391        3063.968         432.369
       22380.372        4153.535         639.813
       21881.003        3528.591         551.318
       23422.433        3293.857         650.910
       21656.673        3334.107         519.998
       26840.072        3053.211         459.628
       28504.564        4277.863         702.989
       28502.459        3017.211         667.689
       27211.408        3704.358         552.349
       30771.450        3258.541         483.490
       30181.277        3762.338         574.980
       28843.088        4312.764         681.138
       33864.255        4788.795         469.215
       34023.129        2520.771         346.131
       32029.017        2289.330         407.236
       37970.672        4898.361         595.129
       35695.777        2725.247         518.129
       35558.700        2372.807         544.972
       41334.170        4371.248         437.857
       41524.145        3767.231         429.770
       38078.578        5045.155         530.463
       43093.177        4350.957         441.960
       45231.856        2941.702         478.312
       44566.836        2288.318         442.622
       46454.850        4463.930         546.324
       47931.284        3129.039         552.754
       44925.517        4908.395         600.659
       47203.424        2209.722         497.703
       47990.429        3232.198         533.894
       48297.778        3155.908         527.554
       48159.191        3729.710         685.255
       48441.983        4285.696         535.498
       52675.162        2975.257         434.461
       55486.596        3349.820         691.294
       52671.240        3476.715         519.546
       56199.401        3497.045         571.849
       54884.371        4213.790         834.767
       56102.498        3878.037         667.737
       61838.719        3162.032         524.458
       62196.589        3393.041         510.328
       62365.781        3124.792         508.100
       61766.956        3391.261         579.267
       65636.041        4254.978         526.675
       65974.102        3149.995         514.332
       66965.806        3747.487         761.926
       67348.998        3428.508         583.394
       67440.818        3450.791         547.752
       67480.874        3935.348         733.782
       67560.392        3577.675         614.390
       70889.047        4292.963         587.034
[...]
POINT_DATA       9684
SCALARS height float 1
LOOKUP_TABLE default
   372.2
   367.3
   363.6
   414.5
   353.2
   371.2
   250.2
   386.1
   411.7
   342.0
   437.5
   353.3
   438.4
   302.6
   396.6
   366.4
   384.5
   356.2
   362.3
   403.0
   320.0
   388.3
   338.9
   257.2
   418.6
   379.1
   260.2
   349.7
   388.2
   386.5
   353.8
   338.5
   326.9
   405.6
   343.4
   394.6
   377.7
   351.9
   332.3
   390.3
   343.3
   313.4
   403.2
   380.6
   407.1
   239.0
   368.1
   361.9
   264.6
   407.0
   412.5
   260.8
   309.8
   397.7
   366.1
   253.7
   348.0
   404.7
   441.8
   382.8
   615.6
   516.4
   552.6
   601.6
   562.7
   585.2
   540.0
   431.8
   570.5
   523.0
   528.9
   438.0
   600.2
   466.9
   498.2
   520.4
   392.0
   517.5
   436.6
   543.0
   560.0
   436.2
   557.3
   594.4
   464.1
   504.9
   494.1
   623.7
   602.6
   461.4
   444.9
   551.5
   630.6
   610.7
   420.8
   458.7
   551.1
   534.8
   396.1
   579.0
   393.7
   499.8
   383.7
   580.5
   446.4
   441.2
   404.1
   421.1
   616.0
   394.3
   498.5
   535.8
   432.8
   382.0
   568.7
   489.8
   595.9
   404.3
   465.7
   706.2
   468.9
   541.1
   624.5
   474.8
   401.9
   559.0
   456.3
   450.2
   547.6
   483.6
   539.5
   420.5
   502.6
   615.6
   544.7
   653.2
   461.8
   525.4
   505.9
   540.2
   337.7
   603.7
   720.5
   682.3
   557.6
   592.4
   419.4
   545.4
   519.6
   572.3
   439.6
   594.4
   432.4
   639.8
   551.3
   650.9
   520.0
   459.6
   703.0
   667.7
   552.3
   483.5
   575.0
   681.1
   469.2
   346.1
   407.2
   595.1
   518.1
   545.0
   437.9
   429.8
   530.5
   442.0
   478.3
   442.6
   546.3
   552.8
   600.7
   497.7
   533.9
   527.6
   685.3
   535.5
   434.5
   691.3
   519.5
   571.8
   834.8
   667.7
   524.5
   510.3
   508.1
   579.3
   526.7
   514.3
   761.9
   583.4
   547.8
   733.8
   614.4
   587.0
   549.6
   731.1
   672.2
   631.0
   648.3
   682.4
   581.8
   423.2
   436.4
   631.5
   431.0
   219.8
   574.3
   469.6
   639.2
   564.5
   755.9
   734.5
   654.7
   589.3
   586.2
   771.3
   692.2
   435.5
   558.3
   468.0
   533.5
   562.6
   669.7
   690.8
   628.2
   604.0
   554.3
   678.4
   632.4
   640.6
   876.1
   465.5
   464.2
   720.0
   558.6
   591.3
   601.6
   611.1
   680.9
   636.5
   558.2
   740.6
   754.6
   646.9
   525.4
   424.3
   449.3
   685.1
   557.1
   780.1
   575.9
   549.0
   664.3
   574.8
   683.7
   456.6
   562.5
   866.4
   657.6
   731.8
   721.3
   568.7
   655.3
   769.4
   439.7
   523.8
   523.2
   528.5
   700.7
   667.7
   768.4
   656.0
   622.9
   560.0
   726.0
   840.6
   815.2
   870.6
   493.8
   550.6
   463.6
   641.5
   809.6
   811.8
   640.7
   751.1
   614.3
   629.1
   718.6
   548.3
   668.9
   629.0
   587.9
   571.7
   573.9
   439.6
   510.3
   560.5
   736.8
   709.2
   628.0
   818.3
   656.1
   691.2
   663.5
   814.0
   789.9
   291.3
   393.0
   596.3
   510.0
   637.1
   506.9
   673.8
   647.4
   687.9
   550.5
   608.9
   741.5
   832.2
   543.9
   555.3
   606.2
   881.8
   837.5
   711.7
   690.0
   631.2
   663.3
   429.7
   497.4
   522.0
   876.0
   767.2
   697.4
   458.6
   431.5
   522.8
   525.5
   623.5
   629.2
   650.5
   799.1
   723.3
   948.7
   738.2
   709.8
   900.3
   659.7
   825.7
   755.4
   837.9
   778.9
   596.3
   827.7
   756.9
   835.7
   714.3
   787.2
   810.3
   797.3
   433.5
   599.8
   577.7
   438.0
   490.8
   447.4
   726.2
   584.3
   558.8
   813.6
   647.3
   801.0
   843.1
   814.3
   747.4
   659.4
   799.8
   755.4
   794.8
   647.5
   838.0
   869.5
   714.4
   710.8
   598.3
   601.6
   741.0
   734.4
   635.9
   606.7
   712.5
   560.2
   523.6
   657.7
   633.6
   742.4
   746.0
   561.9
   745.3
   735.8
   821.0
   814.5
   515.2
   604.6
   406.4
   551.8
   590.0
   477.2
   776.9
   617.5
   579.4
   543.3
   593.9
   563.7
   759.7
   799.7
   519.7
   564.1
   801.6
   678.6
   858.5
   894.6
   607.0
   661.0
   497.5
   643.5
   567.5
   791.5
   820.6
   838.6
   677.5
   586.5
   728.3
   518.6
   509.5
   742.4
   723.4
   809.0
   563.7
   602.2
   638.1
  1038.7
   768.6
   900.9
   918.9
   936.2
  1005.5
   869.2
   914.9
   999.2
  1057.3
   887.8
   837.7
   806.6
   700.1
   770.1
   754.3
   837.9
   618.0
   510.8
   575.4
   536.6
   438.3
   392.6
   386.6
   511.4
   497.8
   441.0
   463.7
   613.8
   561.7
   823.8
   714.8
   864.8
   773.7
   748.1
   862.7
   698.1
   841.6
   667.6
   579.5
   693.7
   649.9
   559.0
   584.9
   831.7
   958.7
   897.8
   768.2
   938.6
   873.3
   632.6
   705.9
   741.5
   991.3
  1020.1
   917.5
   647.9
   788.1
   610.0
   610.1
   750.6
   824.0
   672.4
   635.9
   779.8
   760.1
   630.6
   848.8
   618.1
   828.4
   722.1
   916.3
   943.9
   951.0
   481.5
   800.0
   677.6
   643.0
   864.1
   988.7
  1086.0
   576.8
   401.2
   772.5
   738.6
   964.7
   964.0
   678.6
   727.9
   827.5
   799.2
   930.2
   945.8
   944.9
   883.4
   974.3
  1065.6
   922.7
   852.8
   921.2
  1027.4
   771.4
   695.3
   717.9
   687.0
   539.3
   559.4
   609.5
   531.7
   652.4
   569.4
   767.6
   749.4
   658.9
   735.4
   757.5
   655.2
   769.6
   756.8
  1027.9
  1059.4
   821.9
   906.0
   838.1
   875.5
   736.5
   947.6
   880.8
   926.0
   678.1
   712.6
   577.8
   728.9
   813.6
   868.1
   815.9
   625.5
   597.1
   834.5
   572.8
   490.0
   756.8
   851.4
   981.1
   903.3
   808.1
   924.8
   865.7
   964.3
   705.3
   658.2
   600.2
   784.9
   779.6
   461.8
   630.6
   858.8
   654.5
   576.8
   797.2
   888.4
   876.8
   843.9
  1011.8
   825.7
  1001.6
   887.1
   456.6
   585.6
   840.7
   970.1
  1078.7
   937.1
   806.4
   795.7
   761.7
   559.4
   640.1
   476.8
   632.6
   675.6
   840.9
   624.3
   825.9
   888.4
  1055.7
  1197.0
   954.2
   949.0
   717.6
   838.0
   642.7
   809.7
   778.6
   696.6
   631.8
   713.5
   726.7
   613.8
   502.5
   438.8
   562.6
   283.3
   544.4
   727.3
   837.8
   861.0
   790.5
   835.7
   717.5
   761.7
   827.3
   753.3
   861.5
   839.3
   908.6
   913.7
   905.2
  1094.6
   905.3
  1162.0
   890.5
   954.8
   899.2
   953.6
   742.0
   772.0
   675.7
   751.4
   942.8
   989.3
  1145.2
   877.1
   609.6
   523.8
   566.3
   519.8
   546.2
   525.7
   540.3
   702.0
   716.8
   705.7
   914.5
   914.2
   742.0
   820.1
   973.3
   682.6
   741.4
   923.0
   745.9
   775.5
   586.0
   807.2
   757.3
   652.2
   827.4
   993.3
   919.0
   573.2
   519.8
   797.9
   668.8
   821.9
  1075.1
  1074.1
  1093.7
  1006.9
  1043.0
  1061.6
   745.9
   657.1
   467.3
   550.8
   549.5
   515.3
   405.3
   370.0
   362.7
   496.7
   485.3
   578.3
   517.5
   432.6
   411.8
   609.6
   479.1
   462.2
   685.4
   751.3
   528.4
   589.1
   639.3
   781.4
   758.8
   635.4
   826.5
   851.7
   952.1
   974.4
  1009.7
  1122.2
  1124.5
  1169.7
   662.7
   794.0
  1011.7
  1025.7
  1275.1
   995.0
   662.2
   564.4
   641.9
   864.5
   581.8
   885.0
   777.0
   734.5
   585.4
   944.6
  1141.6
  1033.7
  1072.9
   996.3
   741.8
   716.0
   982.6
   808.8
   926.5
  1037.7
   840.2
   982.3
  1009.9
   889.5
  1018.1
  1143.7
  1069.3
   636.1
   716.2
   887.7
   879.1
   964.6
   854.7
   797.9
   933.3
   671.2
   720.2
   599.7
  1016.6
  1161.9
  1121.0
   887.9
  1006.6
  1026.8
   999.5
   905.8
   948.5
   918.7
   882.4
   886.5
   633.8
   902.3
   866.5
   782.5
   632.8
   682.5
   602.0
   616.8
   715.6
   575.3
   674.8
   633.1
   454.7
   412.0
   446.6
   480.0
   536.5
   695.8
  1106.9
  1074.5
  1024.1
  1064.9
   936.0
  1085.4
   989.7
   915.9
   995.8
   998.8
   959.5
  1173.2
  1186.6
   874.6
   981.2
   925.0
   738.2
   745.9
   857.0
   891.5
   688.4
   953.3
   891.5
   615.1
   791.5
   646.7
   563.7
   840.3
   910.9
   706.8
   868.6
   784.6
  1072.6
  1063.2
   789.8
  1133.1
   950.3
   974.9
   928.1
  1230.7
  1056.5
   969.4
   719.1
   959.9
  1015.9
   879.6
   829.1
   800.1
   775.6
   719.3
   883.4
   992.8
   656.0
   638.0
   658.4
   827.1
   751.9
   960.4
  1104.5
  1159.6
   768.9
   942.2
  1009.7
  1051.8
   774.6
   980.4
   890.1
   865.7
   765.8
   740.2
   770.9
   723.4
   560.5
   630.0
   512.5
   438.2
   662.1
   543.3
   465.8
   371.0
   410.9
   434.1
   593.8
   668.7
   643.2
   561.9
   756.2
   543.7
   678.7
   602.9
   635.9
   537.1
   817.5
   668.0
   773.8
   836.6
   704.2
   996.8
   857.3
   839.8
   819.2
   903.4
  1072.5
   920.9
  1059.5
   909.9
   983.5
  1117.3
   985.4
  1248.8
  1368.4
  1269.8
  1348.9
  1046.6
  1318.2
  1283.7
  1527.2
  1271.7
  1179.0
   720.0
   823.7
   951.6
   924.2
   998.8
   799.1
   899.3
   703.4
   791.3
   709.2
   848.5
  1019.0
   905.2
   819.6
   915.3
  1107.3
  1167.9
  1193.9
  1103.7
  1167.5
  1191.9
  1306.9
  1383.1
   962.6
   846.0
   762.3
   842.0
  1022.3
   930.1
  1021.6
   823.4
   723.5
   722.4
  1185.3
   994.6
  1093.5
  1086.8
   899.2
   729.2
   677.1
   622.9
   629.9
   584.3
   778.8
   503.5
   709.0
   492.3
   671.2
   538.2
   448.3
   543.3
   466.1
   620.3
   523.4
   518.6
   431.9
   469.1
   556.8
   650.7
   466.6
   634.1
   796.0
   584.8
   705.5
   609.5
   839.5
   769.6
   592.1
   686.3
   889.9
   845.2
   715.1
  1025.5
   813.8
  1048.1
  1470.5
  1306.4
  1262.9
   908.6
   940.8
  1112.4
  1048.0
  1079.6
   871.8
   775.5
   865.6
  1014.4
   845.8
  1051.0
  1054.5
  1044.5
  1094.8
  1051.2
  1518.9
  1500.5
  1371.5
  1393.2
  1320.9
  1093.1
  1054.5
   902.4
  1115.0
   912.4
  1198.2
  1172.1
  1143.9
  1128.3
   971.9
  1009.0
   866.0
   865.5
   715.2
  1245.6
  1081.8
  1237.7
   883.4
   836.5
   845.0
   750.4
   744.1
   822.4
  1001.0
   622.2
   428.6
   519.1
   725.5
   643.4
   671.2
   450.4
   459.5
   624.2
   400.9
   466.6
   424.5
   485.6
   552.0
   564.6
   575.3
   646.7
   638.9
   695.1
   560.8
   837.3
  1235.8
  1487.0
  1286.9
  1321.0
  1460.8
  1182.9
  1260.8
  1423.2
  1236.5
  1394.2
  1313.3
  1341.7
  1081.0
  1045.5
   840.0
  1010.2
  1213.7
  1200.9
  1471.5
  1276.1
  1452.5
  1286.9
  1553.7
  1494.3
  1283.2
  1401.1
  1532.0
  1803.3
  1777.4
  1611.3
  1743.4
  1402.9
  1408.7
  1154.6
  1409.3
  1405.1
  1503.0
  1337.2
  1479.3
  1359.6
  1171.1
  1109.6
   964.1
  1109.4
  1294.4
  1179.4
  1247.2
  1387.5
   988.7
   856.9
   995.9
   594.6
   694.2
   756.5
   636.8
   677.1
   857.1
   690.8
   704.6
   691.4
   675.6
   577.2
   659.2
   621.2
   699.6
   527.6
   485.8
   612.0
   474.1
   305.6
   487.6
   573.9
   645.1
   395.5
   472.5
   541.6
   563.6
   437.7
   609.4
   595.7
   539.9
   621.8
   680.7
   654.6
   645.3
   652.2
   847.6
   856.7
   860.3
   752.8
   791.1
   773.8
  1005.8
  1243.0
  1224.2
  1038.9
  1457.4
  1575.7
  1561.8
  1596.6
  1754.6
  1745.0
  1633.8
  1566.9
  1838.8
  1835.4
  1636.6
  1629.9
  1647.4
  1454.5
  1365.6
  1657.1
  1129.2
   970.8
  1095.1
  1361.9
  1317.4
  1317.6
  1638.5
  1639.7
  1484.2
  1953.2
  1795.4
  1953.0
  1765.8
  1767.8
  1762.4
  1506.2
  1602.4
  1462.7
  1364.4
  1450.4
  1608.0
  1616.2
  1698.7
  1686.1
  1628.6
  1467.6
  1352.4
  1435.8
  1455.6
  1454.3
  1403.4
  1317.1
  1312.8
  1488.0
   931.1
   899.3
   921.3
   785.8
  1000.0
   993.9
  1010.9
   762.3
   933.5
  1027.7
   903.8
   832.6
   919.7
   823.5
   846.4
   870.7
   712.4
   854.2
   769.1
   675.8
   467.4
   546.6
   432.8
   571.2
   540.1
   473.0
   480.5
   711.5
   782.2
   845.1
   866.7
   900.4
   883.0
   827.0
   905.7
   982.8
   973.5
  1058.2
  1010.9
  1124.1
  1137.4
  1401.2
  1460.5
  1401.8
  1250.1
  1589.3
  1587.7
  1551.9
  1899.3
  1692.1
  1636.5
  1712.3
  1976.9
  1899.3
  1906.2
  1710.9
  1891.4
  1901.5
  1681.9
  1455.4
  1534.4
  1557.4
  1875.6
  1879.7
  1863.5
  1767.0
  1873.3
  1858.0
  1733.7
  1992.7
  1990.9
  2080.4
  2105.3
  1947.7
  1812.3
  1811.6
  1729.9
  1722.4
  1994.7
  1807.6
  1939.5
  1969.0
  1733.8
  1733.6
  1723.1
  1929.9
  1461.2
  1474.2
  1624.8
  1498.2
  1222.2
  1394.4
  1404.3
  1405.6
  1504.6
  1415.4
  1148.2
  1303.6
  1246.1
   863.8
  1119.5
   974.7
  1058.8
   853.3
  1036.6
   742.9
   800.6
   659.4
   803.4
   572.1
   637.7
   685.5
   496.7
   485.7
   613.4
   437.7
   609.0
   457.3
   484.5
   458.3
   665.0
   685.5
   653.0
   846.2
   785.0
   681.6
   677.2
   954.7
   948.5
   867.7
   923.4
   845.0
   878.4
   660.5
   867.0
   798.6
   924.0
   933.0
   995.3
   840.6
  1209.4
  1180.7
   873.8
  1254.7
  1457.9
  1290.6
  1531.9
  1906.9
  1666.2
  1907.5
  1693.9
  2005.1
  1969.7
  1984.0
  1981.0
  1969.5
  2001.7
  1994.6
  1764.9
  1747.3
  2010.4
  2021.2
  2014.1
  2143.1
  2123.2
  2124.9
  2123.1
  2164.0
  2163.9
  2115.8
  2074.1
  1979.4
  2115.2
  1975.6
  2062.1
  2059.0
  2063.2
  1821.1
  2022.8
  2065.2
  1947.5
  2068.1
  1843.3
  1718.0
  1945.7
  1432.6
  1290.6
  1546.8
  1112.2
  1076.2
  1095.8
   897.6
  1136.4
  1058.6
   979.9
   901.1
   934.3
   731.9
   738.8
   611.0
   479.7
   504.4
   558.8
   352.9
   584.5
   452.3
   518.1
   545.9
   614.0
   504.4
   660.1
   491.8
   728.3
   577.4
   701.0
   639.6
   488.9
   573.1
   656.0
   583.6
   635.4
   737.6
   679.1
   794.5
   864.4
  1026.4
  1010.6
   890.1
   710.9
  1207.3
   930.2
  1180.7
  1341.6
  1127.9
  1377.4
  2004.5
  1932.8
  2043.8
  1937.0
  2169.1
  2169.1
  2169.2
  2022.9
  2149.6
  2022.9
  2022.8
  2149.2
  2022.7
  2165.3
  2134.9
  2022.7
  2136.7
  2022.7
  2137.1
  2022.8
  2022.8
  1981.8
  2038.6
  1497.1
  1498.6
  1398.9
  1414.6
   831.1
   909.4
   825.4
   933.9
   891.4
   807.6
   996.5
   955.3
   883.9
   923.4
   912.6
   826.6
   841.9
   736.0
   672.9
   694.6
   755.0
   652.2
   558.2
   723.2
   628.5
   677.1
   677.7
   548.3
   478.7
   652.0
   722.6
   455.2
   533.1
   717.4
   622.1
   628.1
   484.6
   471.1
   630.1
   513.3
   479.4
   491.7
   632.3
   622.5
   704.0
   618.7
   895.2
   880.9
   771.3
  1211.7
  1139.4
  1921.5
  1711.6
  1944.1
  1936.7
  1666.2
  2169.0
  2159.8
  2023.0
  2023.0
  2023.0
  2169.1
  2169.1
  2022.9
  2022.9
  2022.9
  2022.9
  2022.8
  2022.8
  2022.7
  2022.7
  2022.7
  2022.7
  2130.5
  2163.3
  2169.0
  1818.3
  1957.1
  2039.1
  1849.1
  1278.4
  1493.1
  1235.5
   930.3
   736.2
   936.9
   710.4
   765.8
   643.7
   857.9
   824.0
   842.9
   906.0
   679.2
   847.3
   523.8
   830.7
   650.0
   574.5
   671.2
   426.9
   715.5
   655.9
   573.6
   826.9
   475.4
   437.5
   541.4
   403.3
   588.5
   493.2
   408.3
   549.0
   415.4
   399.6
   436.8
   370.6
   464.3
   537.7
   639.3
   536.9
   612.3
   613.4
   647.8
   570.8
   582.7
   648.2
   783.2
   640.0
   799.0
   619.2
   968.3
   850.5
   814.4
   786.8
   638.3
   688.7
   687.3
   776.8
   863.2
   851.5
  1132.2
  1164.5
  1621.0
  1698.4
  1504.7
  2159.7
  2160.1
  1922.5
  2023.0
  2169.3
  2169.1
  2169.2
  2169.1
  2023.0
  2156.3
  2169.0
  2169.0
  2169.0
  2022.8
  2169.1
  2159.0
  2159.0
  2162.0
  2163.7
  1960.0
  2161.9
  2129.5
  1962.1
  1955.8
  1813.7
  1811.7
  1767.6
  1374.0
  1383.2
  1437.7
  1578.4
  1585.8
  1295.3
  1230.1
   974.9
  1057.2
   675.4
   643.5
   652.5
   625.9
   550.8
   549.6
   554.6
   501.3
   572.0
   463.9
   446.0
   639.5
   677.8
   468.8
   628.4
   486.2
   688.2
   590.6
   473.8
   347.1
   503.6
   590.5
   708.3
   652.6
   629.6
   951.6
   888.4
   965.3
  1056.6
   909.5
   895.0
   988.7
   925.7
   784.9
   956.2
   976.5
  1113.0
  1432.7
  1307.5
  1441.1
  1836.4
  1838.3
  1784.6
  1823.6
  2022.8
  2083.5
  2055.2
  2169.1
  2169.1
  2147.1
  2169.3
  2022.8
  2023.0
  2023.0
  2169.1
  2022.8
  2022.8
  2022.8
  2118.1
  2159.0
  2169.0
  2022.9
  2121.4
  2162.1
  1961.7
  2119.1
  1764.2
  1529.5
  1435.1
  1366.0
  1320.9
  1256.9
  1106.9
  1108.6
  1119.5
   735.1
   704.3
   952.7
   710.1
   817.6
   898.8
   735.3
   671.9
   741.0
   768.8
   788.4
   800.6
   801.7
   650.2
   425.1
   410.7
   659.5
   458.9
   553.9
   442.7
   319.7
   513.3
   456.8
   394.5
   580.6
   581.0
   686.4
   643.3
   659.8
   470.8
   744.0
   690.3
   717.7
   599.8
   639.2
   713.6
   718.6
   747.7
   754.2
   802.2
  1055.2
  1026.9
   935.5
  1193.4
  1395.1
  1382.3
  1281.9
  1359.6
  1380.4
  1385.8
  1556.4
  1547.8
  1586.8
  1712.9
  1692.5
  1846.4
  2050.6
  2022.8
  1786.6
  2022.8
  1962.9
  2023.0
  2169.1
  2052.8
  2022.8
  2023.0
  2022.8
  2022.8
  2169.1
  2169.1
  2169.1
  2022.9
  2169.2
  2169.2
  2118.1
  2118.1
  2159.0
  2159.0
  2158.4
  2123.5
  2119.9
  2123.8
  1867.0
  1864.8
  1784.5
  1075.4
   789.9
   764.3
  1097.2
  1121.3
   998.6
   952.4
   859.1
  1056.1
   809.0
  1107.0
   757.6
   782.9
   859.5
   892.2
   607.5
   626.6
   840.4
   687.3
   705.8
   415.7
   462.7
   514.7
   416.5
   557.4
   476.1
   582.3
   559.8
   585.3
   620.8
   737.5
   573.0
   601.2
   706.0
   749.1
   666.9
   717.8
   849.6
   934.5
   756.9
   967.2
   682.4
   882.9
   846.4
   850.2
  1155.3
  1047.6
  1251.5
  1061.2
  1169.7
  1378.0
  1148.5
  1522.1
  1411.8
  1539.1
  1774.1
  1688.3
  1775.2
  1950.8
  2023.0
  1959.1
  2023.0
  2023.0
  2022.8
  2169.1
  2169.2
  2152.8
  2169.2
  2169.2
  2169.1
  2169.2
  2155.7
  2169.2
  1965.7
  2018.0
  2155.1
  2154.0
  1944.5
  2012.4
  1788.6
  1628.3
  1508.1
  1626.6
  1447.4
  1549.4
  1092.0
  1004.4
  1101.9
   914.0
  1378.1
  1223.7
  1281.5
  1353.5
   844.5
   748.2
   741.8
   715.6
   683.0
   668.4
   568.9
   558.3
   553.8
   687.3
   438.6
   648.9
   675.5
   479.2
   529.0
   608.9
   519.9
   409.3
   495.0
   545.3
   453.1
   520.4
   411.5
   370.2
   437.6
   542.5
   444.1
   482.3
   490.2
   706.7
   604.8
   513.3
   584.2
   668.2
   480.6
   669.3
   610.2
   777.6
  1082.7
   988.4
  1139.7
  1194.5
  1228.7
  1724.6
  1534.3
  1526.6
  1530.3
  1681.1
  2127.4
  2126.7
  1940.7
  2022.8
  2022.8
  2022.8
  2022.8
  2022.8
  2169.2
  2169.2
  2169.2
  2074.4
  2022.7
  2169.2
  2169.1
  2169.1
  2169.1
  2074.4
  2169.1
  2022.8
  2101.0
  2169.1
  1955.7
  1818.4
  1938.5
  1345.8
  1517.1
  1413.2
  1346.1
  1398.9
  1081.9
  1099.9
  1155.0
  1228.9
  1209.2
   927.5
   721.9
   903.6
   966.1
   906.0
   824.1
   645.4
   848.6
   740.4
   743.5
   553.3
   573.8
   775.7
   803.2
   809.6
   832.8
   848.4
   865.9
   584.9
   516.6
   416.9
   478.8
   484.9
   427.8
   331.9
   542.5
   467.7
   492.6
   390.7
   646.5
   646.3
   824.6
   893.8
   768.3
  1286.4
  1237.2
  1226.1
  1133.1
  1232.7
  1277.8
  1688.4
  1944.1
  1930.5
  1933.9
  2161.3
  2169.2
  2169.1
  2063.9
  2169.1
  2169.2
  2169.1
  2169.1
  2169.2
  2169.2
  2169.2
  2022.7
  2022.7
  2022.8
  2022.8
  2022.8
  2022.8
  2022.8
  2169.0
  2157.3
  2022.9
  2022.9
  2022.9
  1838.1
  1861.2
  2078.8
  1762.1
  1821.4
  1602.3
  1580.5
  1675.9
  1858.8
   998.9
  1130.2
  1138.6
  1180.4
  1088.4
   957.6
   844.0
  1054.7
   821.2
  1151.2
  1059.4
  1027.8
  1057.1
   771.9
   893.0
   668.8
   669.2
   745.3
   770.2
   783.4
   518.7
   552.1
   614.1
   440.2
   528.1
   587.4
   662.3
   458.4
   644.3
   534.2
   470.0
   593.0
   524.1
   655.7
   680.4
   609.2
   553.4
   790.2
   735.1
   547.9
   773.8
   525.0
   549.6
   525.3
   615.5
   577.0
   755.0
   745.7
   663.2
   773.4
   614.9
   752.6
   943.0
   940.5
  1189.5
  1001.5
  1027.1
  1053.0
  1113.2
  1333.7
  1399.7
  1659.5
  1691.8
  1703.6
  1426.8
  2058.9
  1900.7
  2169.1
  2161.2
  2169.2
  2169.2
  2169.2
  2169.2
  2022.9
  2022.9
  2074.4
  2169.2
  2169.0
  2169.0
  2083.5
  2169.1
  2022.7
  2096.3
  2076.7
  1745.7
  1657.2
  1504.9
  1465.6
  1591.7
  1326.4
  1119.6
  1110.7
  1329.8
   746.8
   858.4
   714.1
   663.2
   728.4
   555.2
   629.9
   833.6
   792.7
   553.8
   593.5
   526.7
   641.9
   713.8
   701.9
   756.1
   722.3
   444.6
   386.0
   497.4
   489.6
   794.1
   588.5
   627.8
   740.5
   545.8
   646.2
   561.0
   741.8
   744.3
   599.2
   629.0