# vtk DataFile Version 3.0
divides
ASCII
DATASET UNSTRUCTURED_GRID
POINTS       7442 float
        1761.518        1344.765         364.208
        5767.435        1172.358         380.091
        4514.201        1227.035         353.065
        7814.102        1224.294         409.631
        8175.377        1199.716         347.314
       11193.873        1574.438         384.176
       10778.519         533.132         260.904
       14048.219        1337.849         405.431
       11508.870        1589.815         421.412
       14493.543        1285.109         355.738
       18459.258        1105.452         367.670
       17288.219        1593.338         388.739
       20591.051        1475.875         421.009
       21357.185         591.161         290.058
       20881.057        1472.569         375.495
       25162.781        1025.839         382.961
       23794.444        1371.787         366.917
       26194.834        1021.475         372.423
       27433.742        1219.706         351.700
       29938.877        1452.002         408.838
       30844.266         534.774         266.902
       30092.133        1485.550         380.247
       34465.959        1653.782         411.250
       33437.151        1422.297         372.684
       33071.235         509.341         275.657
       34602.101        1663.252         403.472
       37056.768        1212.801         351.780
       38856.256         529.226         268.250
       38258.385        1279.954         357.652
       37307.750        1188.303         390.594
       40579.069        1137.809         383.193
       41794.219        1495.927         381.243
       43352.222        1300.049         360.789
       45851.265         964.709         336.834
       46707.878        1213.201         354.602
       50618.727         966.453         372.202
       49953.810        1727.843         406.080
       49178.978         736.719         297.332
       51674.894         966.175         380.760
       52925.019        1246.303         355.505
       55483.341        1171.839         391.465
       55860.507        1162.899         345.882
       59061.139        1165.761         347.096
       61862.797        1152.128         391.693
       60536.622        1212.615         356.056
       63646.800        1491.766         425.686
       64406.542         602.545         274.559
       63800.644        1532.533         391.301
       67279.242        1386.774         375.475
       66762.369         569.751         272.777
       67620.997        1393.314         417.702
       70384.004        1678.041         404.436
       69860.278         515.963         278.798
       72149.824         999.782         325.697
       74724.080        1240.506         404.164
       72624.358        1022.149         377.836
       75658.573         506.070         262.178
       75100.869        1231.490         356.963
       76251.006        1549.747         401.535
       78297.394        1360.022         433.777
       78631.647        1346.409         373.296
       79489.257         674.772         557.806
         855.428        1710.952         477.609
        1591.518        3254.170         518.654
         716.302        2663.375         514.426
        3387.274        1671.137         528.371
        5031.416        2989.712         563.954
        3557.939        2812.998         562.859
        5008.402        1617.012         442.191
        9535.720        2080.296         533.837
        7032.745        2504.380         541.748
        7570.007        1636.266         452.274
        9420.240        3425.042         578.130
        8908.032        1375.258         467.340
       12268.735        1941.107         536.083
       12685.507        2356.227         568.209
       10568.762        2164.717         478.320
       16543.903        1904.756         522.313
       17654.348        1878.349         426.848
       16291.377        2248.102         558.072
       17408.064        2784.240         548.888
       20404.224        1789.852         438.613
       20618.304        3700.869         603.404
       21476.909        2348.763         528.150
       21340.782        1677.915         424.670
       20267.834        2333.448         531.234
       22669.552        2462.492         528.627
       23165.240        1653.001         427.295
       24103.960        4857.030         615.472
       24825.918        2420.216         529.116
       24380.157        1700.693         455.016
       27219.104        2978.366         538.421
       29441.559        1611.046         569.581
       30126.733        2777.333         608.053
       26889.655        1571.547         439.202
       30613.300        1769.493         548.691
       30302.373        2587.632         622.419
       32008.794        1997.016         493.516
       35307.020        1693.786         618.181
       37466.782        1556.252         423.620
       36979.381        2191.207         550.525
       39083.657        1748.210         438.383
       38081.763        4690.258         569.860
       39727.725        3102.674         528.871
       40906.429        2828.919         569.050
       42298.728        3311.366         579.927
       42609.248        2425.605         538.414
       42393.049        1859.834         453.890
       41296.784        1788.465         452.429
       44420.247        1672.769         453.299
       46539.322        1903.788         548.761
       47112.984        1404.293         461.119
       46456.997        1350.665         419.774
       50123.510        1781.017         425.649
       50311.043        2151.246         543.510
       49616.164        1792.240         504.021
       49318.608        2310.671         642.979
       54144.795        1535.723         559.323
       52120.663        2193.055         548.872
       52412.675        1510.051         451.028
       57178.562        1578.827         538.777
       53237.316        2921.139         615.512
       59899.089        1561.968         459.605
       56096.029        3373.368         607.434
       61373.332        2407.706         562.866
       59550.740        2867.387         586.313
       61067.956        1557.413         468.421
       63292.987        2100.174         597.448
       63485.559        1656.341         458.015
       64006.764        2453.386         623.081
       68570.724        2021.558         556.082
       66006.563        4153.821         627.788
       67916.585        1513.753         483.727
       64598.748        2737.859         633.302
       69246.230        3194.322         647.158
       70861.037        1797.101         501.460
       71021.135        2253.833         582.436
       69861.791        2033.114         515.703
       73932.548        1552.763         525.567
       73371.105        2370.937         575.949
       76822.682        1670.337         592.921
       79224.895        1672.748         430.669
       78678.124        2480.285         503.464
         659.957        3784.348         499.189
        4540.195        4420.914         693.234
        4535.569        3272.676         675.054
        2873.886        3478.397         556.892
        5309.957        3293.800         492.267
        7589.464        5778.212         622.310
        6241.462        6311.360         625.418
        9218.243        3529.013         629.337
        4813.188        4625.862         577.886
        8269.465        5084.209         619.796
        9379.210        4067.688         722.931
        8628.047        4697.884         802.548
        9987.290        3330.558         724.313
       10916.075        4168.809         803.870
       10753.522        2666.451         568.804
       11516.320        2840.114         611.538
       15199.717        5604.581         602.831
       16599.307        3292.783         571.196
       11554.571        4354.103         621.058
       15324.556        5513.544         658.419
       17764.488        4394.560         564.417
       17867.310        3128.198         463.372
       21696.752        4365.585         587.826
       24037.521        4825.963         638.845
       21051.328        4097.146         589.826
       27216.709        4413.817         609.891
       26984.263        3075.231         568.673
       24136.156        4857.624         618.606
       27648.545        3514.154         722.739
       29164.243        2971.871         785.044
       27221.142        4006.394         763.511
       31823.466        4240.954         796.562
       29956.948        3277.857         722.739
       32201.045        4582.159         601.669
       33861.461        4780.356         602.544
       33893.348        2575.484         512.167
       32197.719        2369.480         551.715
       35520.075        2670.042         585.979
       35029.924        4675.555         632.103
       35171.642        2157.815         612.797
       41681.590        3796.934         602.950
       40076.246        5971.965         644.146
       41280.668        4329.915         594.120
       38498.069        4749.822         632.729
       44847.856        5011.357         600.605
       45082.144        2958.413         563.205
       44186.344        2604.992         503.827
       46794.113        2470.413         508.291
       48118.617        4370.649         628.244
       44911.672        4930.468         629.695
       47506.004        3054.440         573.351
       48960.146        3108.781         603.207
       48173.551        4343.395         628.425
       51163.161        5114.100         601.545
       48265.397        4372.512         638.763
       53062.817        2980.991         589.948
       54488.996        3194.434         840.723
       53338.643        3328.891         722.776
       51593.829        4652.861         844.913
[...]
POINT_DATA       7442
SCALARS height float 1
LOOKUP_TABLE default
   364.2
   380.1
   353.1
   409.6
   347.3
   384.2
   260.9
   405.4
   421.4
   355.7
   367.7
   388.7
   421.0
   290.1
   375.5
   383.0
   366.9
   372.4
   351.7
   408.8
   266.9
   380.2
   411.3
   372.7
   275.7
   403.5
   351.8
   268.2
   357.7
   390.6
   383.2
   381.2
   360.8
   336.8
   354.6
   372.2
   406.1
   297.3
   380.8
   355.5
   391.5
   345.9
   347.1
   391.7
   356.1
   425.7
   274.6
   391.3
   375.5
   272.8
   417.7
   404.4
   278.8
   325.7
   404.2
   377.8
   262.2
   357.0
   401.5
   433.8
   373.3
   557.8
   477.6
   518.7
   514.4
   528.4
   564.0
   562.9
   442.2
   533.8
   541.7
   452.3
   578.1
   467.3
   536.1
   568.2
   478.3
   522.3
   426.8
   558.1
   548.9
   438.6
   603.4
   528.2
   424.7
   531.2
   528.6
   427.3
   615.5
   529.1
   455.0
   538.4
   569.6
   608.1
   439.2
   548.7
   622.4
   493.5
   618.2
   423.6
   550.5
   438.4
   569.9
   528.9
   569.0
   579.9
   538.4
   453.9
   452.4
   453.3
   548.8
   461.1
   419.8
   425.6
   543.5
   504.0
   643.0
   559.3
   548.9
   451.0
   538.8
   615.5
   459.6
   607.4
   562.9
   586.3
   468.4
   597.4
   458.0
   623.1
   556.1
   627.8
   483.7
   633.3
   647.2
   501.5
   582.4
   515.7
   525.6
   575.9
   592.9
   430.7
   503.5
   499.2
   693.2
   675.1
   556.9
   492.3
   622.3
   625.4
   629.3
   577.9
   619.8
   722.9
   802.5
   724.3
   803.9
   568.8
   611.5
   602.8
   571.2
   621.1
   658.4
   564.4
   463.4
   587.8
   638.8
   589.8
   609.9
   568.7
   618.6
   722.7
   785.0
   763.5
   796.6
   722.7
   601.7
   602.5
   512.2
   551.7
   586.0
   632.1
   612.8
   602.9
   644.1
   594.1
   632.7
   600.6
   563.2
   503.8
   508.3
   628.2
   629.7
   573.4
   603.2
   628.4
   601.5
   638.8
   589.9
   840.7
   722.8
   844.9
   752.4
   722.8
   751.4
   750.4
   629.5
   586.0
   599.7
   661.2
   759.6
   722.8
   554.0
   642.6
   852.9
   782.8
   722.7
   722.7
   650.7
   654.7
   663.4
   605.5
   622.9
   826.9
   670.2
   613.7
   723.0
   425.2
   447.7
   594.5
   433.8
   221.0
   548.3
   460.6
   618.3
   685.1
   839.3
   626.4
   722.9
   722.9
   831.3
   722.9
   722.9
   625.4
   614.4
   655.1
   669.0
   636.2
   723.2
   869.1
   719.2
   723.2
   723.2
   869.0
   722.7
   722.7
   722.7
   640.9
   869.0
   869.3
   869.1
   846.1
   653.8
   869.3
   755.9
   650.6
   723.0
   708.2
   723.1
   747.6
   723.0
   675.4
   868.9
   869.0
   856.0
   868.9
   722.6
   722.8
   722.6
   722.7
   751.4
   751.4
   751.4
   751.4
   839.1
   848.7
   722.7
   722.7
   854.3
   722.7
   857.7
   722.7
   722.7
   722.7
   617.5
   611.4
   488.4
   509.4
   435.2
   585.5
   854.2
   869.2
   650.8
   722.9
   722.9
   722.7
   864.8
   865.6
   866.1
   866.7
   869.2
   865.6
   869.1
   869.2
   869.3
   869.2
   721.7
   869.3
   723.1
   707.4
   708.3
   723.2
   723.1
   869.0
   723.1
   869.1
   869.0
   724.1
   869.0
   869.3
   869.0
   723.0
   869.1
   869.1
   722.9
   722.9
   722.9
   722.9
   856.0
   869.0
   672.3
   856.0
   722.7
   722.7
   722.7
   722.7
   722.7
   722.7
   869.1
   869.0
   856.8
   865.1
   866.1
   858.7
   859.5
   864.6
   865.3
   869.1
   869.2
   869.1
   868.6
   867.3
   869.2
   869.0
   723.0
   869.0
   869.0
   827.4
   869.1
   634.3
   622.9
   723.0
   447.9
   521.7
   553.2
   428.8
   537.6
   506.3
   681.8
   684.2
   631.6
   854.2
   854.2
   722.9
   722.9
   722.7
   869.1
   869.1
   869.0
   869.0
   869.1
   869.1
   865.6
   723.0
   723.0
   723.0
   723.0
   723.1
   723.1
   723.1
   869.0
   724.1
   869.2
   723.2
   723.2
   724.1
   869.0
   869.1
   869.1
   869.3
   869.0
   869.0
   869.1
   869.1
   722.7
   869.0
   722.7
   722.7
   722.6
   868.9
   722.6
   868.9
   868.9
   869.0
   869.0
   722.6
   869.1
   869.1
   829.5
   869.1
   867.8
   867.6
   868.9
   868.7
   868.9
   869.2
   869.1
   869.2
   869.1
   869.2
   840.3
   869.2
   869.2
   869.3
   869.3
   869.2
   723.0
   723.0
   723.0
   574.5
   660.9
   556.0
   639.4
   464.0
   431.2
   428.4
   474.4
   557.9
   462.4
   505.3
   869.0
   722.7
   869.2
   682.8
   869.1
   869.1
   722.7
   722.7
   722.7
   869.1
   796.2
   869.1
   869.2
   869.3
   833.1
   869.2
   869.2
   722.9
   722.9
   722.9
   869.0
   869.0
   869.1
   869.0
   869.0
   869.1
   869.0
   823.7
   869.1
   869.1
   869.0
   751.6
   722.8
   722.8
   722.8
   722.8
   868.9
   869.0
   869.1
   869.0
   869.0
   869.1
   722.6
   722.8
   722.8
   829.5
   869.1
   869.2
   722.8
   829.5
   722.8
   869.2
   722.8
   868.7
   869.2
   869.2
   722.8
   723.0
   723.0
   869.2
   869.2
   869.1
   869.1
   869.1
   541.5
   527.7
   552.6
   528.1
   631.9
   656.7
   630.3
   689.4
   818.7
   722.7
   869.0
   722.7
   722.8
   722.7
   728.8
   869.1
   722.8
   722.8
   722.8
   722.8
   722.7
   869.1
   869.1
   869.2
   869.0
   869.2
   740.0
   869.2
   722.9
   869.2
   833.1
   845.1
   869.1
   722.8
   869.0
   869.1
   869.1
   869.0
   869.1
   782.1
   869.1
   722.8
   751.6
   751.6
   751.6
   869.2
   722.8
   722.8
   869.0
   869.0
   869.0
   722.7
   869.1
   869.2
   869.1
   869.0
   829.5
   829.5
   854.2
   869.1
   722.8
   869.1
   722.8
   722.8
   869.1
   869.2
   869.2
   824.6
   869.1
   869.1
   722.9
   722.9
   869.0
   869.0
   682.3
   624.8
   869.0
   483.4
   518.0
   576.0
   270.0
   512.5
   622.5
   667.7
   869.0
   658.2
   685.9
   869.0
   818.7
   818.7
   722.8
   722.8
   728.8
   728.8
   728.8
   722.7
   869.1
   782.8
   833.1
   722.7
   740.0
   869.1
   787.6
   722.5
   722.8
   869.1
   722.8
   722.5
   782.1
   782.1
   782.1
   869.1
   869.1
   869.1
   869.1
   869.0
   869.3
   869.1
   869.1
   723.0
   869.0
   722.8
   869.1
   869.0
   869.0
   869.1
   722.7
   722.7
   722.7
   722.8
   854.2
   854.2
   854.2
   722.8
   869.1
   869.2
   869.2
   869.1
   869.1
   869.1
   824.6
   824.6
   824.6
   869.1
   869.2
   869.1
   788.6
   869.0
   676.6
   722.8
   636.8
   722.8
   532.9
   362.6
   403.1
   477.2
   467.8
   465.0
   542.3
   676.4
   504.8
   632.7
   869.0
   869.0
   869.1
   869.1
   869.1
   869.1
   869.1
   722.8
   722.7
   869.1
   722.7
   722.7
   869.2
   740.0
   869.2
   869.2
   722.9
   750.6
   722.5
   869.1
   722.5
   722.6
   722.8
   869.0
   722.8
   828.9
   861.6
   722.8
   722.7
   722.8
   869.1
   722.8
   869.1
   869.1
   722.8
   869.0
   836.0
   869.0
   869.0
   869.0
   722.8
   722.8
   722.8
   722.8
   869.1
   869.1
   869.2
   869.1
   869.1
   869.0
   869.1
   866.0
   869.0
   869.0
   869.0
   869.1
   869.1
   722.7
   869.0
   585.4
   677.6
   501.4
   478.6
   633.4
   497.0
   638.9
   627.8
   561.4
   869.1
   869.1
   869.0
   722.8
   869.0
   869.0
   869.1
   869.1
   722.8
   722.7
   722.7
   722.7
   722.7
   869.2
   869.2
   869.2
   869.1
   740.0
   869.2
   722.9
   869.1
   787.6
   722.9
   722.9
   722.9
   869.1
   869.0
   869.0
   861.6
   828.9
   722.8
   722.8
   751.6
   726.0
   722.8
   722.7
   722.8
   722.8
   722.8
   869.1
   869.2
   722.8
   869.0
   869.0
   836.0
   869.1
   869.1
   869.1
   863.3
   869.1
   722.8
   869.0
   869.0
   869.0
   722.8
   869.0
   869.0
   869.0
   869.0
   722.7
   676.5
   610.1
   722.7
   640.3
   477.5
   450.2
   558.3
   533.8
   340.0
   449.6
   425.3
   533.7
   615.8
   665.5
   869.2
   722.9
   869.3
   722.8
   722.9
   722.8
   722.8
   722.8
   869.1
   869.1
   869.1
   869.2
   869.1
   869.2
   869.1
   869.2
   869.2
   869.1
   836.5
   869.0
   869.0
   869.0
   722.8
   869.0
   869.0
   869.0
   722.8
   722.7
   722.8
   869.1
   736.3
   869.1
   722.7
   836.0
   869.0
   869.0
   869.0
   722.8
   869.0
   869.1
   869.0
   869.0
   869.1
   722.8
   722.8
   722.8
   722.8
   869.1
   789.8
   869.1
   722.8
   722.7
   869.1
   869.1
   869.1
   869.1
   869.0
   681.6
   722.7
   535.4
   515.8
   430.0
   536.6
   668.4
   602.5
   722.9
   722.9
   722.9
   723.0
   722.9
   722.9
   869.3
   869.3
   869.1
   869.2
   869.1
   869.2
   869.1
   869.2
   869.1
   869.1
   869.1
   869.2
   869.1
   869.1
   869.1
   869.1
   869.1
   869.1
   869.1
   869.0
   722.8
   722.8
   722.8
   722.8
   726.0
   722.9
   869.0
   751.6
   869.1
   722.6
   722.7
   722.7
   722.7
   722.6
   722.8
   869.1
   722.8
   722.8
   849.7
   869.0
   869.0
   849.7
   869.0
   869.2
   722.7
   869.1
   789.8
   789.8
   790.2
   869.1
   869.1
   722.7
   722.7
   683.2
   869.0
   604.3
   482.7
   556.9
   673.4
   441.0
   562.3
   487.3
   589.0
   612.0
   621.3
   869.2
   869.3
   869.3
   869.3
   869.3
   869.2
   869.2
   869.3
   728.8
   869.1
   722.8
   869.2
   748.9
   869.1
   869.2
   722.9
   869.1
   722.9
   722.9
   793.6
   869.1
   822.2
   722.8
   869.1
   722.8
   722.8
   869.1
   869.1
   869.2
   869.1
   791.3
   722.9
   751.6
   722.6
   722.6
   722.8
   722.8
   722.6
   722.9
   869.0
   869.1
   722.9
   849.7
   722.7
   849.7
   722.7
   722.7
   722.7
   869.3
   869.2
   868.9
   869.2
   790.2
   869.1
   722.8
   790.2
   722.8
   722.8
   869.0
   869.0
   824.2
   869.3
   723.0
   869.3
   869.2
   619.3
   628.7
   671.5
   483.6
   496.9
   454.1
   297.1
   462.8
   543.2
   577.5
   434.8
   444.6
   869.3
   869.3
   628.1
   869.2
   869.3
   869.3
   722.9
   869.2
   869.3
   869.2
   869.1
   869.2
   722.8
   869.1
   869.2
   869.2
   735.0
   869.1
   869.1
   869.1
   869.0
   869.0
   869.2
   822.2
   869.1
   869.1
   869.2
   869.1
   869.2
   722.7
   722.7
   722.6
   722.6
   722.6
   722.6
   722.6
   722.6
   722.6
   869.2
   722.9
   869.1
   722.9
   722.6
   868.9
   722.9
   868.9
   868.9
   869.0
   722.8
   790.2
   722.8
   868.9
   722.8
   843.5
   824.2
   869.1
   869.2
   869.2
   869.1
   869.1
   869.1
   832.0
   858.8
   869.1
   624.9
   481.3
   566.8
   474.8
   482.0
   601.2
   529.4
   723.1
   607.7
   723.1
   869.2
   869.3
   867.5
   722.9
   869.0
   869.3
   784.6
   723.0
   869.2
   748.9
   728.8
   869.1
   723.0
   869.2
   869.0
   869.1
   869.0
   723.1
   869.1
   869.1
   869.1
   723.1
   869.1
   822.2
   869.2
   722.8
   869.1
   869.2
   869.1
   800.8
   869.1
   869.2
   869.2
   869.0
   722.8
   722.7
   722.7
   722.7
   869.1
   869.1
   722.9
   869.1
   869.1
   722.9
   722.9
   722.9
   869.2
   869.1
   722.7
   756.9
   868.9
   722.6
   868.9
   722.9
   868.9
   790.0
   722.6
   722.8
   790.0
   869.1
   869.2
   869.2
   869.1
   722.8
   869.1
   869.1
   825.1
   722.8
   533.6
   493.0
   541.8
   392.3
   438.1
   460.1
   493.9
   614.8
   632.1
   723.0
   704.0
   869.2
   723.0
   869.0
   722.8
   869.2
   869.1
   869.3
   869.1
   723.0
   722.9
   869.1
   868.9
   722.8
   869.3
   869.0
   723.1
   722.9
   722.8
   869.1
   869.1
   800.8
   800.8
   789.4
   869.2
   869.2
   869.1
   722.8
   869.0
   869.1
   869.0
   869.1
   869.1
   856.9
   869.0
   869.1
   869.0
   869.0
   862.2
   868.9
   722.6
   862.2
   722.6
   722.6
   868.9
   750.9
   722.9
   722.8
   790.0
   790.0
   790.0
   790.0
   722.8
   869.1
   869.1
   722.8
   722.8
   722.8
   722.8
   701.6
   866.8
   858.5
   567.4
   392.7
   533.1
   467.2
   491.6
   723.0
   723.0
   699.4
   662.8
   722.8
   869.2
   869.0
   869.1
   722.8
   869.0
   722.7
   868.9
   869.1
   868.9
   869.2
   722.7
   869.2
   869.1
   789.4
   722.9
   789.4
   789.4
   869.2
   869.0
   869.2
   722.9
   869.1
   722.8
   869.2
   722.7
   869.1
   869.1
   722.7
   869.1
   722.7
   869.1
   722.6
   722.8
   862.2
   862.2
   756.9
   868.9
   756.9
   722.6
   750.9
   869.1
   869.1
   722.6
   869.1
   869.1
   722.8
   722.8
   722.7
   722.8
   722.8
   722.8
   869.1
   869.1
   722.7
   705.8
   571.6
   497.7
   681.6
   436.3
   578.0
   623.9
   495.6
   651.1
   609.3
   640.1
   869.1
   869.1
   714.5
   722.8
   722.8
   869.1
   869.1
   869.1
   722.7
   722.7
   722.7
   869.1
   722.9
   722.9
   869.1
   869.0
   869.1
   869.0
   869.1
   723.0
   723.0
   723.0
   869.1
   869.1
   722.9
   722.9
   722.9
   722.9
   722.8
   722.8
   722.7
   722.7
   722.7
   722.7
   722.6
   869.1
   869.1
   869.1
   722.6
   722.6
   722.6
   722.6
   868.9
   750.9
   722.6
   722.6
   722.6
   722.7
   869.0
   869.0
   869.0
   869.0
   869.0
   722.7
   722.7
   722.7
   650.5
   617.3
   869.1
   451.3
   460.3
   520.1
   545.4
   401.9
   477.5
   448.7
   475.7
   469.8
   578.7
   572.2
   715.6
   869.0
   869.1
   668.0
   869.0
   869.0
   869.0
   869.1
   869.0
   722.7
   869.0
   869.1
   869.1
   722.7
   869.1
   722.7
   722.7
   869.1
   722.7
   869.1
   869.2
   722.7
   869.2
   869.2
   869.1
   869.2
   869.1
   869.1
   723.0
   869.3
   869.1
   869.2
   869.2
   723.0
   856.3
   869.0
   869.0
   869.0
   722.8
   869.0
   869.0
   869.2
   869.1
   869.2
   869.1
   722.6
   722.6
   722.6
   722.7
   869.1
   869.1
   868.9
   869.1
   868.9
   869.0
   868.9
   869.0
   869.1
   722.7
   722.8
   722.7
   722.7
   722.7
   733.5
   722.8
   722.8
   869.1
   722.7
   625.4
   545.1
   631.6
   516.0
   513.0
   628.9
   537.6
   636.5
   652.0
   635.0
   869.1
   869.1
   869.0
   722.8
   869.1
   722.7
   722.7
   722.7
   722.7
   722.7
   722.7
   722.7
   722.7
   722.7
   722.8
   869.1
   722.8
   722.8
   869.1
   869.1
   869.1
   869.1
   869.1
   847.1
   869.3
   722.8
   723.0
   723.0
   869.0
   722.8
   722.8
   722.8
   869.1
   869.1
   869.0
   722.9
   869.1
   869.2
   722.8
   869.1
   722.8
   869.1
   869.1
   869.1
   869.1
   856.1
   869.1
   869.2
   722.8
   722.8
   722.8
   722.8
   602.2
   629.9
   573.9
   417.2
   500.3
   482.7
   298.2
   460.2
   447.5
   417.1
   545.4
   576.7
   722.8
   777.1
   620.7
   722.8
   722.8
   869.1
   869.1
   722.8
   869.1
   722.8
   722.8
   817.4
   869.1
   722.9
   869.1
   869.1
   869.1
   722.9
   722.7
   722.8
   722.7
   869.1
   722.7
   722.8
   723.0
   869.1
   869.1
   722.8
   723.0
   722.8
   722.8
   869.1
   869.2
   869.1
   722.9
   869.2
   869.2
   869.1
   869.2
   869.2
   869.2
   863.6
   869.2
   869.1
   869.2
   869.1
   869.2
   869.1
   869.2
   869.1
   869.1
   869.1
   869.1
   869.1
   869.1
   798.4
   869.2
   869.1
   722.8
   869.1
   869.2
   869.2
   746.7
   869.0
   869.1
   733.5
   869.1
   869.0
   869.1
   722.4
   700.2
   722.8
   722.8
   847.1
   602.5
   474.5
   596.0
   579.8
   633.5
   620.7
   861.6
   862.7
   722.8
   864.7
   866.4
   869.1
   869.0
   869.1
   869.2
   817.4
   722.8
   869.2
   817.4
   722.8
   722.9
   869.1
   722.7
   722.7
   722.7
   723.0
   869.1
   723.0
   723.0
   722.8
   869.2
   869.2
   852.8
   869.2
   869.2
   869.2
   869.2
   869.2
   869.2
   869.2
   869.1
   861.3
   869.1
   869.1
   869.1
   869.1
   722.9
   869.1
   869.1
   869.1
   869.1
   722.8
   722.6
   869.1
   722.9
   833.0
   722.6
   777.8
   733.5
   869.1
   777.8
   869.0
   848.7
   722.8
   869.0
   722.8
   824.9
   590.2
   610.2
   722.8
   535.2
   517.3
   506.5
   533.1
   471.3
   353.9
   608.4
   474.5
   429.8
   554.8
   722.8
   722.8
   869.1
   722.8
   869.2
   722.8
   722.8
   722.8
   722.7
   869.2
   868.9
   869.1
   869.1
   869.1
   722.7
   722.8
   869.0
   869.0
   722.7
   722.7
   722.7
   722.7
   869.3
   869.3
   869.3
   722.8
   722.8
   722.8
   722.8
   722.8
   869.2
   869.2
   869.2
   869.0
   722.7
   869.2
   869.1
   869.1
   869.2
   869.1
   869.1
   722.8
   722.8
   869.1
   869.1
   869.1
   869.1
   869.1
   722.9
   722.9
   722.8
   722.6
   722.8
   722.9
   722.9
   869.1
   869.1
   869.1
   863.2
   722.8
   722.8
   536.4
   454.7
   473.3
   549.0
   641.2
   624.0
   722.8
   722.8
   869.0
   869.0
   869.1
   869.0
   869.1
   869.2
   869.1
   869.1
   869.1
   722.7
   722.7
   722.7
   722.7
   722.7
   722.8
   722.8
   869.2
   869.2
   869.3
   723.0
   869.1
   869.2
   869.3
   723.0
   869.2
   869.2
   869.1
   869.2
   869.3
   869.2
   869.2
   722.7
   722.7
   722.7
   722.8
   722.8
   722.8
   722.8
   869.1
   857.3
   722.9
   722.9
   722.9
   722.8
   722.8
   722.8
   722.8
   869.2
   869.2
   869.1
   869.2
   850.9
   869.2
   869.2
   869.1
   869.2
   869.1
   868.9
   869.2
   833.0
   868.8
   868.9
   868.8
   839.2
   795.7
   723.0
   869.2
   869.1
   869.1
   868.6
   863.0
   571.6
   818.1
   576.4
   495.7
   502.9
   649.2
   618.0
   869.1
   869.1
   869.1
   722.8
   869.1
   869.0
   723.0
   869.1
   722.9
   722.8
   869.2
   859.2
   740.7
   859.2
   859.2
   859.2
   869.1
   722.8
   869.1
   869.2
   869.1
   869.2
   722.9
   869.2
   869.3
   723.0
   869.2
   723.0
   869.1
   869.2
   869.2
   869.2
   869.2
   722.9
   722.9
   869.0
   869.2
   869.0
   869.0
   795.9
   869.1
   722.7
   869.0
   868.9
   869.2
   869.2
   722.7
   722.9
   869.1
   869.2
   869.2
   869.1
   869.1
   869.1
   869.1
   847.2
   869.0
   869.1
   868.8
   869.0
   723.0
   869.2
   868.9
   869.1
   868.5
   723.0
   623.2
   617.7
   488.1
   502.3
   394.6
   457.6
   678.8
   592.0
   499.9
   669.3
   869.0
   722.7
   722.8
   723.0
   722.8
   722.9
   722.9
   722.9
   722.9
   722.8
   740.7
   722.8
   869.1
   722.8
   722.8
   869.1
   869.1
   869.2
   869.2
   869.3
   869.2
   869.4
   869.0
   869.1
   771.3
   869.1
   869.2
   869.2
   869.2
   869.2
   869.0
   869.2
   869.0
   869.0
   722.8
   869.1
   869.0
   722.8
   722.7
   722.8
   722.8
   868.9
   869.0
   722.7
   722.7
   722.8
   869.1
   869.2
   869.2
   869.2
   722.9
   722.9
   722.8
   869.2
   869.1
   722.9
   722.8
   722.9
   869.2
   723.0
   723.0
   670.8
   620.5
   700.4
   503.5
   547.9
   500.5
   544.3
   299.5
   450.7
   468.4
   426.0
   475.8
   466.8
   672.2
   503.2
   722.8
   625.7
   722.8
   722.8
   722.8
   722.7
   723.0
   723.0
   869.2
   869.1
   722.8
   869.1
   869.1
   722.8
   869.3
   869.2
   833.6
   868.8
   869.3
   869.3
   869.2
   869.2
   869.2
   869.2
   869.2
   869.1
   869.2
   869.1
   722.9
   722.9
   844.6
   869.2
   869.0
   869.1
   869.2
   869.2
   869.1
   869.1
   869.1
   722.8
   869.1
   722.8
   722.9
   722.8
   722.8
   722.8
   869.1
   869.1
   869.1
   869.2
   869.1
   869.2
   869.2
   869.1
   869.2
   722.8
   869.2
   722.9
   722.8
   722.9
   722.9
   722.9
   729.6
   722.8
   732.9
   632.8
   669.3
   429.8
   599.6
   453.7
   635.1
   598.5
   567.4
   722.5
   868.9
   820.2
   722.7
   722.7
   869.3
   723.0
   869.3
   869.1
   869.1
   723.0
   869.1
   722.8
   869.1
   722.8
   869.1
   723.0
   869.1
   869.3
   869.3
   869.3
   869.1
   723.0
   723.0
   723.0
   723.0
   869.2
   869.1
   869.2
   869.2
   869.2
   722.9
   869.1
   869.1
   869.1
   722.8
   869.1
   869.2
   722.9
   869.1
   869.0
   869.0
   722.8
   722.9
   722.9
   722.9
   869.1
   869.1
   796.1
   722.8
   722.8
   852.6
   869.1
   869.1
   869.1
   869.1
   722.8
   722.8
   722.8
   869.1
   722.8
   869.1
   722.8
   722.8
   722.8
   700.3
   716.4
   595.6
   645.8
   430.3
   504.1
   464.6
   365.2
   473.1
   431.4
   488.3
   619.8
   825.3
   722.5
   869.0
   869.0
   722.5
   869.2
   869.2
   723.0
   723.0
   733.5
   722.8
   869.2
   869.2
   786.2
   786.2
   733.5
   869.1
   869.1
   869.1
   869.1
   723.0
   835.2
   723.0
   723.0
   869.0
   869.3
   869.3
   869.2
   869.2
   869.2
   722.9
   722.7
   869.1
   869.2
   722.9
   869.1
   869.1
   722.8
   722.8
   869.0
   869.0
   722.8
   722.8
   722.8
   869.2
   869.1
   869.1
   869.1
   869.2
   868.7
   869.1
   869.1
   869.1
   723.0
   869.2
   722.7
   869.2
   855.0
   722.7
   869.1
   869.2
   869.0
   869.2
   722.8
   869.2
   869.0
   869.1
   869.0
   856.0