# vtk DataFile Version 3.0
divides
ASCII
DATASET UNSTRUCTURED_GRID
POINTS       8863 float
        1765.668        1379.321         368.484
        5686.122        1073.821         367.960
        4504.051        1270.612         358.518
        7842.454        1248.840         413.344
        8180.485        1234.662         351.908
       11194.500        1413.476         369.838
       10796.963         509.802         249.487
       13875.957        1153.218         385.411
       11615.906        1458.018         410.447
       14484.301        1158.140         341.623
       18372.509         993.848         353.089
       17225.705        1912.813         415.795
       20696.032        1587.257         432.726
       21391.589         627.664         298.841
       20889.102        1618.730         389.854
       25028.833         907.666         365.767
       23785.717        1430.023         373.277
       26307.944         906.530         355.669
       27445.407        1280.577         359.248
       29961.421        1480.744         412.277
       30969.088         685.026         303.608
       34358.455        1448.475         393.070
       33467.824        1154.403         343.069
       33113.132         468.983         259.519
       36872.056        1245.388         428.792
       34679.623        1447.597         384.201
       38837.595         507.580         257.278
       38269.349        1180.851         346.637
       37241.506        1260.372         400.435
       40744.764         953.144         358.111
       41836.593        1822.303         411.410
       43332.273        1129.673         340.768
       45890.272         896.132         326.373
       47656.648        1192.244         403.632
       50452.343         808.606         346.419
       48523.472        1181.447         392.527
       49908.564        1506.879         386.770
       51860.636         806.671         354.928
       52905.304        1049.761         330.693
       55454.938        1141.117         388.893
       55864.980        1125.610         341.745
       59087.398         945.310         315.958
       61915.175        1208.909         400.665
       60499.195        1384.931         377.673
       63534.080        1356.900         412.705
       64347.682         515.308         238.644
       63822.171        1367.042         374.859
       67270.215        1228.814         357.917
       66786.231         538.685         260.765
       67730.155        1264.314         404.269
       70383.595        1720.903         410.230
       69908.488         469.875         261.042
       72135.211         902.273         310.380
       74670.496        1181.373         398.489
       72700.029         942.871         366.739
       75644.547         490.592         254.159
       75106.744        1158.509         348.760
       76244.851        1567.120         405.627
       78346.062        1404.225         441.731
       78642.361        1408.682         382.263
       79473.181         696.010         608.272
         873.161        1713.252         500.263
        1608.889        3146.615         542.282
         736.561        2648.199         544.845
        3378.590        1672.052         563.453
        4802.320        2439.396         550.066
        3457.317        2956.431         620.502
        4912.947        1607.604         427.914
        7704.665        2832.822         565.622
        9084.308        1909.154         516.902
        7454.617        2181.255         525.683
        7654.956        1629.809         437.725
        9135.755        2984.794         591.163
        8847.722        1394.050         463.263
       12417.747        1935.775         493.761
       12592.777        2332.840         514.945
       10604.738        2154.038         387.777
       16965.036        1914.140         512.579
       17275.952        1914.926         432.937
       16918.992        2027.322         537.272
       17310.123        2323.544         571.432
       20611.939        1795.308         429.321
       20808.899        2413.188         555.857
       21391.422        2267.976         578.983
       21236.143        1707.523         453.420
       20539.276        2105.344         499.497
       24294.075        2115.432         481.392
       23882.949        3219.796         587.823
       22699.780        2443.431         568.238
       23191.948        1659.603         445.701
       24248.461        1719.418         432.923
       27300.672        2589.078         546.154
       29344.379        1610.652         619.384
       29104.059        2318.949         613.460
       27029.206        1578.704         416.891
       30374.796        1701.594         470.808
       30449.790        1281.568         542.316
       30188.334        2118.480         546.875
       32086.735        1996.900         402.654
       36218.742        1551.898         616.138
       37305.328        1494.075         404.648
       37028.331        1874.923         498.635
       39017.206        1754.889         384.385
       38076.901        4810.926         561.309
       39229.977        2691.306         451.443
       41637.086        2068.074         511.428
       41941.996        2177.106         527.750
       42052.353        2012.588         499.487
       41945.358        1856.560         438.534
       41737.609        1843.011         438.431
       44564.799        1644.689         405.437
       48625.343        2816.780         635.077
       50269.783        2111.979         415.788
       49341.750        1762.250         504.163
       54591.512        1534.710         526.906
       52278.640        2069.002         438.840
       52321.089        1505.254         385.595
       56850.754        2891.145         570.732
       56742.128        1563.804         490.173
       54159.993        2424.115         583.461
       60273.372        1528.621         404.659
       58025.591        3410.902         473.299
       61399.104        2433.343         670.916
       60259.683        1823.354         473.145
       60983.527        1550.831         525.211
       62655.624        2675.442         629.961
       63239.354        1656.180         472.072
       63886.256        2021.322         408.180
       68152.263        1939.043         448.224
       68075.677        1447.189         443.625
       70018.574        2327.675         543.244
       70751.194        1825.314         480.166
       70848.096        2163.552         535.672
       70171.871        1965.780         416.151
       73970.349        1555.054         502.087
       73822.750        3723.369         613.002
       73713.842        2219.729         543.354
       76962.882        1674.230         647.229
       79211.419        1674.012         458.750
       78679.943        2404.522         522.034
         662.864        3786.922         505.823
        3902.711        3814.683         787.298
        3576.194        3230.456         614.199
        3062.428        3355.426         595.382
        5674.130        4232.094         566.079
        5454.343        3287.625         359.570
        9027.870        5530.327         718.334
       10684.528        4067.897         667.895
       10014.144        3318.232         547.464
        8854.316        3727.598         589.343
       10615.604        2587.313         413.262
       12125.484        2840.241         538.963
       16767.331        3330.898         523.692
       11888.939        4188.308         566.061
       17685.600        4049.369         448.536
       16245.198        3819.535         584.402
       17885.585        3105.219         435.841
       22434.299        4349.382         644.264
       21869.046        3582.910         558.541
       23543.443        3330.766         647.867
       21641.162        3353.658         522.617
       26885.991        3060.223         461.913
       28528.431        4299.156         714.472
       28291.283        3031.678         661.344
       27209.686        3650.922         551.941
       30824.280        3307.875         499.116
       30091.856        4164.272         605.940
       28770.502        4380.204         666.900
       34027.867        2518.773         361.116
       32060.234        2304.162         416.271
       35536.008        2675.048         513.122
       35363.814        2264.557         540.680
       41368.911        4398.087         463.622
       41490.028        3760.795         447.864
       38218.449        4946.682         539.261
       43075.705        4396.983         454.625
       45177.903        2947.725         480.228
       44528.857        2319.927         444.704
       46455.329        4467.388         539.365
       47815.692        3108.763         535.995
       44948.858        4871.182         589.289
       47185.172        2221.347         489.527
       47895.455        3272.176         511.646
       48464.339        3144.057         529.760
       48160.941        3804.506         652.164
       48473.185        4270.356         544.478
       52623.480        2974.492         442.667
       55483.408        3349.323         671.365
       52587.857        3567.739         534.746
       56272.172        3521.658         580.156
       54880.058        4216.817         806.112
       56125.480        3979.506         686.607
       61696.469        3165.598         523.070
       62226.399        3491.452         493.727
       62475.848        3111.074         494.664
       61635.431        3478.232         583.780
       65546.216        4174.298         513.331
       65903.997        3140.653         504.477
       67069.930        3682.466         709.114
       67407.128        3443.156         554.661
       67447.134        3446.348         545.036
       67484.228        3974.984         743.392
[...]
POINT_DATA       8863
SCALARS height float 1
LOOKUP_TABLE default
   368.5
   368.0
   358.5
   413.3
   351.9
   369.8
   249.5
   385.4
   410.4
   341.6
   353.1
   415.8
   432.7
   298.8
   389.9
   365.8
   373.3
   355.7
   359.2
   412.3
   303.6
   393.1
   343.1
   259.5
   428.8
   384.2
   257.3
   346.6
   400.4
   358.1
   411.4
   340.8
   326.4
   403.6
   346.4
   392.5
   386.8
   354.9
   330.7
   388.9
   341.7
   316.0
   400.7
   377.7
   412.7
   238.6
   374.9
   357.9
   260.8
   404.3
   410.2
   261.0
   310.4
   398.5
   366.7
   254.2
   348.8
   405.6
   441.7
   382.3
   608.3
   500.3
   542.3
   544.8
   563.5
   550.1
   620.5
   427.9
   565.6
   516.9
   525.7
   437.7
   591.2
   463.3
   493.8
   514.9
   387.8
   512.6
   432.9
   537.3
   571.4
   429.3
   555.9
   579.0
   453.4
   499.5
   481.4
   587.8
   568.2
   445.7
   432.9
   546.2
   619.4
   613.5
   416.9
   470.8
   542.3
   546.9
   402.7
   616.1
   404.6
   498.6
   384.4
   561.3
   451.4
   511.4
   527.8
   499.5
   438.5
   438.4
   405.4
   635.1
   415.8
   504.2
   526.9
   438.8
   385.6
   570.7
   490.2
   583.5
   404.7
   473.3
   670.9
   473.1
   525.2
   630.0
   472.1
   408.2
   448.2
   443.6
   543.2
   480.2
   535.7
   416.2
   502.1
   613.0
   543.4
   647.2
   458.7
   522.0
   505.8
   787.3
   614.2
   595.4
   566.1
   359.6
   718.3
   667.9
   547.5
   589.3
   413.3
   539.0
   523.7
   566.1
   448.5
   584.4
   435.8
   644.3
   558.5
   647.9
   522.6
   461.9
   714.5
   661.3
   551.9
   499.1
   605.9
   666.9
   361.1
   416.3
   513.1
   540.7
   463.6
   447.9
   539.3
   454.6
   480.2
   444.7
   539.4
   536.0
   589.3
   489.5
   511.6
   529.8
   652.2
   544.5
   442.7
   671.4
   534.7
   580.2
   806.1
   686.6
   523.1
   493.7
   494.7
   583.8
   513.3
   504.5
   709.1
   554.7
   545.0
   743.4
   611.6
   544.9
   586.4
   548.0
   734.2
   674.9
   628.1
   654.7
   683.4
   577.8
   422.4
   436.6
   625.9
   432.4
   220.4
   570.7
   468.6
   644.8
   591.6
   744.7
   796.1
   662.3
   586.1
   580.4
   763.2
   694.1
   509.2
   416.3
   545.7
   472.6
   520.8
   568.2
   694.6
   725.5
   655.6
   633.1
   549.5
   642.8
   647.3
   891.8
   497.3
   475.8
   484.2
   720.8
   606.6
   602.7
   608.0
   650.8
   648.8
   602.7
   584.5
   745.4
   712.9
   541.3
   683.1
   566.9
   459.7
   475.0
   670.5
   565.1
   772.8
   589.3
   567.5
   655.5
   599.1
   714.2
   496.8
   578.5
   864.5
   724.6
   747.9
   753.6
   591.1
   685.0
   803.5
   457.7
   530.2
   517.2
   537.1
   684.8
   638.0
   717.4
   658.8
   622.1
   564.2
   719.5
   789.9
   846.5
   862.8
   488.7
   525.6
   448.3
   620.7
   803.1
   827.1
   646.9
   683.4
   616.1
   646.9
   738.3
   550.8
   640.6
   681.6
   600.0
   561.2
   583.8
   423.8
   509.0
   551.5
   708.8
   648.9
   783.3
   609.1
   605.6
   650.9
   861.3
   759.8
   716.0
   788.0
   706.2
   802.0
   871.7
   344.8
   448.7
   661.0
   581.6
   712.7
   540.3
   733.3
   684.5
   724.7
   583.8
   630.7
   716.6
   816.1
   611.0
   582.9
   623.0
   873.2
   843.2
   716.0
   730.5
   688.7
   682.8
   466.7
   551.3
   557.8
  1019.9
   851.8
   766.2
   490.9
   455.6
   543.0
   537.0
   621.1
   624.6
   651.7
   805.6
   715.9
   866.3
   721.2
   688.6
   854.8
   674.3
   851.5
   763.9
   850.3
   810.4
   620.9
   835.9
   762.5
   842.3
   712.3
   754.3
   837.1
   796.4
   426.6
   584.2
   559.3
   436.4
   476.1
   433.3
   563.5
   540.0
   808.5
   639.8
   864.6
   875.1
   812.8
   770.4
   677.7
   828.0
   792.0
   879.4
   659.6
   911.1
   899.9
   769.3
   746.2
   617.5
   642.8
   812.0
   787.6
   661.3
   684.0
   568.8
   881.1
   570.6
   722.4
   800.5
   576.2
   806.3
   895.1
   835.5
   905.9
   886.3
   586.8
   751.4
   440.0
   597.9
   770.6
   563.8
   778.6
   665.2
   652.9
   603.2
   656.3
   648.6
   908.6
   906.3
   556.3
   623.7
   862.0
   845.9
   963.1
   961.7
   701.9
   837.8
   630.1
   748.8
   656.4
   864.9
   894.2
   740.3
   629.0
   800.2
   557.4
   543.5
   856.9
   754.3
   855.0
   607.7
   654.4
   647.1
  1103.9
   803.4
  1057.6
  1015.4
   999.4
  1103.4
   925.1
  1000.2
  1084.7
  1057.7
   960.9
   882.9
   941.0
   698.8
   838.7
   744.0
   821.3
   597.6
   509.3
   558.9
   523.9
   439.4
   390.4
   385.4
   492.5
   489.6
   430.3
   459.1
   599.4
   552.7
   901.5
   745.1
   957.1
   827.6
   789.6
  1070.1
   829.2
   985.1
   866.2
   845.6
   960.5
   716.7
   660.0
   743.1
  1073.3
  1077.4
   943.7
  1112.8
  1119.8
   799.1
   901.8
  1190.6
  1072.2
   931.1
   914.2
   836.8
   848.7
   701.0
   757.7
   967.2
   951.2
   709.0
   806.3
  1016.7
  1070.1
   731.1
   799.3
   662.4
  1014.8
  1144.1
  1234.7
  1054.3
   625.2
  1060.0
   921.4
  1021.7
   875.1
  1010.6
  1089.0
  1258.1
   665.4
   473.3
   968.5
   874.1
  1054.3
  1014.6
   776.3
   770.9
   948.0
   819.1
  1114.2
  1113.1
  1098.8
  1063.8
  1187.8
  1238.3
  1005.5
   955.0
   925.6
  1199.9
   716.4
   707.1
   776.3
   669.2
   550.3
   544.4
   578.0
   562.8
   522.3
   733.5
   715.9
   589.8
   651.7
   788.8
   767.5
   746.7
   769.4
   776.7
  1129.7
  1202.4
   971.5
   941.6
   996.7
  1168.4
   896.1
  1187.2
   891.8
  1195.5
  1212.6
  1154.3
   848.7
  1111.3
  1008.3
  1130.7
  1137.3
  1054.5
   853.6
   666.0
   591.2
  1182.2
  1070.0
  1054.3
  1093.0
  1082.8
   862.1
   947.0
   842.6
   903.4
   772.2
  1112.5
  1060.3
   821.0
   867.4
  1078.7
   998.3
   745.6
  1103.3
  1052.5
  1130.5
   890.1
  1137.0
  1326.9
  1264.4
   713.9
   906.5
  1245.1
  1087.5
  1362.9
  1248.5
   917.4
  1054.4
  1091.6
   930.4
   645.7
   796.2
   590.1
   833.5
   959.6
  1033.2
   800.3
  1074.4
  1043.1
  1209.1
  1372.6
  1108.2
  1186.0
   825.8
   955.6
   706.9
   895.1
   922.1
   830.0
   640.6
   826.0
   680.8
   621.7
   493.5
   431.8
   532.6
   273.6
   535.9
   663.5
   792.6
   918.2
   627.0
   786.0
   797.4
   939.2
   778.8
   965.9
  1011.5
   927.2
   992.9
  1159.4
   947.5
  1162.8
  1370.5
  1293.4
  1299.5
  1287.3
  1291.8
  1283.0
  1205.0
  1153.1
  1024.9
  1292.3
  1391.2
  1315.9
  1462.4
  1466.6
  1161.4
  1205.0
   814.4
   800.3
   694.3
   763.7
   737.9
  1001.4
  1078.3
  1207.5
  1240.7
  1197.0
   991.6
  1218.4
  1260.0
  1231.6
  1264.7
  1354.4
  1100.4
  1103.7
  1290.4
  1282.0
  1263.7
  1031.9
  1047.2
  1085.8
  1077.5
  1344.8
  1201.7
  1437.1
  1251.0
   782.2
   707.0
  1130.9
   957.6
  1114.8
  1329.5
  1315.8
  1309.6
  1134.8
  1194.4
  1403.4
   841.0
   708.8
   501.4
   544.2
   532.1
   498.0
   395.9
   354.0
   356.5
   476.7
   473.9
   565.1
   508.0
   421.9
   398.4
   643.9
   507.5
   474.9
   691.8
   791.9
   541.9
   608.1
   671.7
   910.3
   911.8
   745.1
  1211.5
  1327.8
  1337.7
  1446.0
  1522.8
  1576.7
  1490.6
  1523.5
  1526.5
  1381.5
  1450.1
  1607.8
  1547.3
  1605.5
  1605.8
  1241.5
  1060.4
  1214.8
  1233.3
  1046.9
  1233.8
  1071.5
  1183.9
  1000.5
  1509.8
  1481.2
  1497.7
  1308.4
  1475.2
  1498.1
  1518.7
  1522.7
  1494.1
  1571.4
  1522.8
  1478.2
  1398.6
  1487.4
  1493.9
  1416.9
  1409.1
  1420.0
  1562.3
  1558.6
  1432.3
  1560.7
  1314.6
  1351.3
  1406.3
  1429.4
  1273.8
  1213.6
  1265.3
  1175.0
  1081.2
  1086.0
   921.8
  1463.3
  1497.4
  1454.2
  1376.6
  1203.2
  1430.0
  1444.7
  1235.7
  1219.2
  1253.9
  1173.5
   955.3
   655.5
   934.2
   946.5
   861.2
   644.5
   711.2
   707.7
   670.1
   730.8
   567.4
   649.4
   618.5
   447.9
   411.6
   444.0
   474.0
   545.6
   569.5
   829.9
   912.5
  1471.1
  1490.7
  1456.3
  1595.6
  1593.0
  1594.0
  1522.8
  1669.2
  1669.2
  1669.2
  1459.5
  1656.7
  1610.3
  1556.6
  1611.6
  1614.3
  1424.0
  1525.5
  1521.1
  1431.8
  1375.2
  1376.8
  1387.2
  1313.7
  1084.8
  1350.1
  1338.3
  1259.5
  1522.8
  1522.8
  1535.1
  1524.1
  1522.8
  1522.7
  1522.8
  1522.8
  1522.8
  1669.1
  1669.1
  1522.8
  1501.2
  1604.0
  1571.3
  1330.5
  1494.7
  1403.6
  1376.5
  1304.6
  1442.6
  1447.8
  1096.7
  1231.5
  1238.5
  1372.6
  1369.9
  1372.8
  1456.1
  1633.0
  1208.1
  1437.6
  1302.4
  1061.2
  1226.0
  1123.1
  1090.2
   917.7
  1100.3
   899.1
   757.2
   781.1
   754.0
   562.5
   641.8
   499.9
   434.8
   646.8
   538.7
   462.3
   368.8
   410.1
   430.3
   579.6
   664.5
   629.7
   556.2
   822.5
   575.3
   780.8
   615.2
   639.0
   962.5
   768.0
   812.4
   889.0
   771.6
  1096.5
  1008.4
  1175.6
  1313.5
  1230.4
  1504.7
  1508.4
  1505.4
  1669.1
  1669.1
  1669.2
  1656.7
  1669.1
  1611.7
  1436.3
  1543.0
  1611.8
  1602.6
  1546.5
  1550.2
  1553.1
  1522.8
  1606.8
  1606.2
  1607.4
  1522.8
  1522.7
  1522.8
  1669.1
  1528.7
  1669.1
  1522.7
  1571.3
  1636.0
  1634.5
  1584.3
  1522.8
  1582.8
  1543.0
  1582.2
  1529.7
  1527.4
  1538.6
  1321.6
  1539.7
  1545.0
  1445.7
  1613.7
  1637.3
  1201.9
   794.6
   716.0
   768.7
   660.6
   944.4
   512.1
   715.0
   498.5
   705.2
   552.0
   443.3
   536.2
   459.1
   621.8
   527.0
   537.1
   441.1
   483.6
   553.1
   750.8
   530.3
   730.4
   908.4
   636.6
  1123.5
  1081.7
   952.5
   986.6
   788.9
  1326.5
  1540.4
  1531.0
  1669.1
  1568.8
  1669.2
  1656.7
  1669.1
  1669.2
  1656.7
  1656.7
  1656.7
  1669.1
  1669.1
  1669.1
  1669.1
  1669.0
  1669.1
  1669.0
  1522.8
  1522.8
  1522.8
  1522.8
  1524.1
  1522.9
  1669.0
  1535.1
  1669.0
  1522.7
  1522.7
  1522.7
  1522.7
  1522.6
  1522.8
  1669.0
  1522.8
  1522.8
  1577.1
  1669.0
  1669.0
  1577.1
  1668.6
  1668.5
  1522.7
  1660.4
  1619.1
  1615.8
  1361.8
  1152.5
  1350.1
  1043.0
   970.6
   893.7
  1180.6
   645.1
   473.2
   536.2
   725.7
   640.6
   646.4
   445.9
   455.1
   613.5
   400.1
   471.9
   428.9
   505.7
   681.5
   700.3
   788.0
   752.1
  1331.7
  1283.8
  1352.4
  1158.3
  1669.1
  1650.8
  1669.2
  1565.1
  1522.9
  1669.1
  1522.9
  1522.9
  1593.6
  1669.0
  1565.4
  1522.8
  1669.1
  1522.8
  1522.8
  1669.1
  1669.0
  1669.0
  1669.1
  1591.3
  1522.9
  1535.1
  1522.6
  1522.6
  1522.8
  1522.8
  1522.6
  1522.9
  1669.0
  1669.0
  1522.9
  1577.1
  1522.7
  1577.1
  1522.7
  1522.8
  1522.8
  1668.6
  1660.4
  1668.3
  1659.6
  1651.0
  1400.9
  1449.8
   720.3
   887.2
   863.8
   794.3
   691.4
   690.7
   931.9
   743.3
   779.7
   772.4
   692.0
   619.8
   711.4
   614.9
   686.2
   524.4
   476.6
   595.5
   467.5
   306.3
   471.3
   572.5
   610.3
   397.5
   458.5
   550.8
   601.0
   453.5
   595.3
   610.3
   589.9
   786.2
   738.0
   755.3
   790.0
  1168.1
  1222.5
  1264.9
  1372.1
  1340.6
  1091.7
  1391.4
  1663.4
  1669.1
  1669.1
  1585.9
  1669.1
  1669.1
  1669.1
  1669.0
  1669.1
  1669.2
  1565.4
  1669.1
  1669.1
  1669.2
  1604.0
  1669.2
  1522.8
  1522.7
  1522.6
  1522.6
  1522.7
  1522.6
  1522.6
  1522.6
  1522.6
  1669.1
  1522.9
  1669.0
  1522.9
  1522.6
  1668.9
  1522.9
  1668.9
  1668.9
  1669.0
  1657.8
  1651.7
  1596.8
  1668.9
  1290.1
  1426.6
  1263.5
  1446.9
  1078.1
  1170.0
  1150.4
  1183.2
  1090.1
  1138.9
  1116.5
   952.2
  1098.9
   873.4
   845.1
   826.2
   734.6
   883.1
   728.0
   681.6
   457.1
   546.2
   423.7
   544.4
   538.7
   458.4
   460.1
   660.6
   573.5
   768.0
   806.9
   825.5
  1044.0
  1045.1
   971.8
  1012.0
  1133.4
  1032.8
  1085.5
   967.7
  1211.8
  1208.6
  1508.6
  1564.2
  1544.2
  1620.9
  1577.8
  1623.6
  1551.3
  1667.9
  1668.9
  1669.1
  1663.3
  1523.1
  1669.1
  1669.1
  1669.1
  1523.1
  1669.0
  1565.4
  1669.1
  1522.8
  1669.1
  1669.1
  1604.0
  1556.2
  1604.0
  1604.0
  1669.2
  1669.0
  1522.9
  1522.7
  1522.7
  1522.7
  1669.1
  1669.1
  1522.9
  1669.1
  1669.1
  1522.9
  1522.9
  1522.9
  1669.1
  1669.0
  1522.7
  1537.3
  1668.9
  1522.6
  1668.9
  1522.9
  1668.9
  1541.4
  1590.0
  1332.5
  1509.2
  1520.8
  1275.9
  1018.7
  1184.1
   847.2
   897.8
   704.1
   874.6
   584.3
   670.8
   722.8
   493.7
   483.1
   600.8
   429.6
   610.6
   442.8
   468.3
   440.6
   673.6
   662.8
   653.8
   780.0
   765.2
   842.7
   989.1
   975.6
  1033.0
  1012.3
  1251.8
  1281.3
  1553.9
  1547.3
  1663.6
  1667.8
  1572.5
  1669.3
  1669.0
  1523.1
  1522.9
  1522.8
  1591.7
  1669.1
  1556.2
  1556.2
  1551.4
  1669.2
  1669.2
  1669.1
  1522.9
  1669.0
  1669.1
  1669.0
  1669.1
  1669.1
  1656.9
  1669.0
  1669.1
  1669.0
  1669.0
  1582.5
  1668.8
  1522.6
  1582.5
  1522.6
  1522.6
  1668.9
  1534.8
  1522.9
  1499.0
  1544.8
  1545.4
  1541.5
  1541.4
  1029.0
  1090.0
  1042.8
   636.7
   498.9
   500.7
   556.6
   352.5
   550.6
   439.6
   501.9
   517.1
   618.6
   580.9
   824.3
   544.0
   689.0
   716.2
   924.9
   834.5
   901.9
   738.5
   906.8
  1160.3
  1295.1
  1390.2
  1522.7
  1657.0
  1407.6
  1668.9
  1669.1
  1522.7
  1669.1
  1669.1
  1551.4
  1522.9
  1551.4
  1551.4
  1669.1
  1669.0
  1669.2
  1522.9
  1669.2
  1522.8
  1669.1
  1522.7
  1669.1
  1669.1
  1522.7
  1669.1
  1522.7
  1669.1
  1522.7
  1522.8
  1582.5
  1582.5
  1537.3
  1668.8
  1537.3
  1522.6
  1534.8
  1560.9
  1574.3
  1522.6
  1376.1
  1310.5
  1172.7
  1326.3
  1440.0
  1000.7
  1161.2
   862.9
   982.1
   944.4
   811.5
   736.6
   836.6
   740.0
   631.6
   746.6
   672.9
   700.7
   690.1
   538.3
   478.2
   604.3
   714.7
   440.7
   609.0
   658.3
   588.3
   657.5
   484.6
   476.8
   598.6
   573.9
   569.9
   698.9
   629.5
   981.2
  1389.4
  1412.6
  1522.7
  1522.7
  1669.0
  1522.9
  1522.9
  1669.1
  1669.0
  1669.1
  1669.0
  1669.1
  1523.0
  1523.0
  1523.0
  1669.1
  1669.1
  1522.9
  1522.9
  1522.9
  1522.9
  1522.8
  1522.8
  1522.7
  1522.7
  1522.7
  1522.7
  1522.6
  1669.1
  1669.0
  1669.1
  1522.6
  1522.6
  1522.6
  1522.6
  1668.9
  1534.8
  1522.6
  1522.6
  1522.6
  1375.1
  1452.8
  1556.3
  1344.1
  1089.4
  1032.7
  1309.7
   698.9
  1011.9
   961.5
   745.8
   755.5
   561.7
   757.0
   637.5
   587.0
   836.0
   455.2
   430.7
   514.0
   379.8
   555.8
   497.1
   413.8
   577.6
   438.6
   444.6
   457.0
   392.0
   494.4
   552.0
   692.2
   553.7
   630.2
   785.0
   815.4
   622.6
   772.4
   680.5
   887.3
   829.9
   874.9
  1156.4
  1027.1
  1137.8
   891.0
  1416.9
  1557.8
  1522.7
  1586.8
  1358.9
  1522.8
  1669.0
  1522.7
  1669.1
  1669.1
  1522.8
  1669.1
  1669.1
  1669.1
  1669.1
  1669.1
  1669.1
  1523.0
  1669.3
  1669.1
  1669.2
  1669.1
  1523.0
  1656.3
  1669.1
  1669.0
  1669.0
  1522.8
  1669.0
  1669.0
  1669.2
  1669.1
  1669.2
  1669.1
  1522.6
  1522.6
  1522.6
  1522.7
  1669.1
  1669.1
  1668.9
  1669.1
  1665.5
  1623.0
  1668.9
  1652.0
  1553.3
  1446.1
   987.8
   983.1
   701.2
   535.8
   530.7
   670.7
   685.4
   478.9
   611.4
   509.4
   624.6
   574.6
   481.1
   373.6
   530.1
   506.6
   603.8
   831.4
   709.9
   826.8
  1321.0
  1347.2
  1140.9
  1339.3
  1522.7
  1522.7
  1522.7
  1522.7
  1522.8
  1522.8
  1669.1
  1522.8
  1522.8
  1669.1
  1669.1
  1669.1
  1669.1
  1669.2
  1647.1
  1669.3
  1522.9
  1523.0
  1523.0
  1669.1
  1522.8
  1522.8
  1522.8
  1652.2
  1669.1
  1669.0
  1522.9
  1669.1
  1669.1
  1522.8
  1669.1
  1522.8
  1665.4
  1669.1
  1586.3
  1537.1
  1545.2
  1588.8
  1307.5
  1531.8
  1074.6
   799.5
  1052.4
  1059.0
  1069.5
   823.5
   848.6
   823.2
   638.4
   456.1
   416.9
   650.2
   449.1
   550.8
   460.6
   319.2
   502.4
   446.5
   396.3
   561.2
   590.8
   650.9
   667.0
   473.0
   846.7
   824.1
   814.7
   671.1
   731.8
   835.1
   850.0
   868.3
  1104.9
  1080.7
  1548.8
  1522.9
  1669.1
  1669.1
  1669.1
  1522.9
  1522.7
  1522.8
  1522.7
  1669.0
  1522.7
  1522.8
  1523.0
  1669.1
  1668.9
  1522.8
  1523.0
  1522.8
  1522.8
  1669.1
  1669.1
  1669.1
  1522.9
  1669.2
  1669.2
  1652.2
  1652.2
  1669.2
  1669.2
  1663.6
  1669.1
  1669.1
  1669.1
  1669.1
  1669.1
  1669.1
  1669.1
  1668.7
  1669.1
  1669.1
  1665.5
  1665.4
  1665.5
  1597.6
  1546.6
  1622.4
  1321.1
  1547.9
  1493.0
  1548.3
  1121.9
  1290.5
  1119.8
  1301.9
   649.2
   689.9
   934.2
   777.4
   770.6
   437.8
   497.3
   533.9
   414.5
   575.4
   484.3
   584.7
   566.2
   576.6
   637.0
   750.4
   593.1
   660.7
   806.5
   860.4
   716.7
   873.6
   862.6
  1047.9
   889.7
  1232.0
   950.8
  1215.5
  1212.7
  1065.6
  1623.9
  1441.8
  1521.0
  1434.2
  1522.9
  1522.9
  1669.1
  1522.7
  1522.7
  1522.7
  1523.0
  1668.9
  1523.0
  1523.0
  1522.8
  1669.1
  1669.2
  1652.8
  1669.2
  1669.2
  1669.2
  1669.2
  1669.2
  1669.2
  1669.1
  1669.1
  1661.3
  1604.8
  1669.1
  1669.1
  1668.6
  1522.9
  1668.6
  1668.7
  1668.6
  1669.1
  1667.7
  1405.3
  1500.7
  1329.2
   921.4
   893.8
   784.4
   779.8
   592.8
   582.6
   551.9
   693.2
   456.8
   648.8
   695.6
   482.9
   513.2
   575.3
   510.8
   415.9
   441.8
   610.3
   462.4
   539.9
   438.8
   400.8
   473.4
   606.4
   484.9
   549.1
   541.5
   834.2
   779.8
   585.7
   873.1
   925.6
   767.5
  1063.9
  1073.5
  1233.6
  1625.2
  1483.3
  1621.6
  1669.1
  1669.1
  1669.0
  1641.0
  1522.8
  1668.9
  1603.2
  1522.7
  1522.7
  1522.7
  1522.7
  1669.3
  1669.3
  1669.3
  1522.8
  1522.8
  1522.8
  1522.8
  1522.8
  1669.2
  1669.2
  1669.2
  1592.9
  1522.7
  1669.2
  1669.1
  1669.1
  1669.1
  1592.9
  1669.1
  1522.8
  1522.8
  1669.1
  1604.8
  1604.8
  1604.8
  1669.2
  1522.9
  1522.9
  1587.5
  1425.3
  1667.7
  1116.8
  1327.9
  1351.6
  1112.4
  1058.0
   830.2
  1069.0
   923.6
   895.6
   880.9
   641.4
   627.2
   837.3
   904.3
   904.9
   763.8
   828.0
   560.1
   503.2
   410.1
   464.0
   490.2
   433.1
   396.6
   589.0
   553.2
   738.4
   614.8
  1325.8
  1300.8
  1092.5
  1641.4
  1590.6
  1640.6
  1522.8
  1522.8
  1603.2
  1603.2
  1669.3
  1523.0
  1669.1
  1669.1
  1669.1
  1523.0
  1669.1
  1669.2
  1669.1
  1669.1
  1669.2
  1669.2
  1669.2
  1522.7
  1522.7
  1522.8
  1522.8
  1522.8
  1522.8
  1522.8
  1669.0
  1657.3
  1522.9
  1522.9
  1522.9
  1522.8
  1522.8
  1522.8
  1522.8
  1669.2
  1669.2
  1605.2
  1534.7
  1650.8
  1669.2
  1669.2
  1669.1
  1593.0
  1313.9
  1391.1
  1532.9
  1244.4
  1312.8
  1339.3
   932.8
  1107.9
  1059.5
   808.4
   882.5
   855.0
   633.8
   690.6
   713.5
   498.6
   520.8
   568.8
   439.9
   506.0
   749.3
   506.1
   738.7
   610.1
   536.8
   693.3
   622.2
   710.3
   753.0
   695.3
   685.4
   879.7
   856.8
   642.5
   823.1
   787.8
   778.7
  1169.1
  1043.6
  1083.0
  1342.3
  1338.1
  1596.3
  1520.8
  1597.5
  1489.3
  1669.1
  1522.8
  1539.1
  1669.2
  1669.1
  1669.2
  1522.9
  1669.2
  1669.2
  1523.0
  1669.2
  1523.0
  1669.1
  1669.2
  1669.2
  1669.2
  1669.2
  1522.9
  1522.9
  1592.9
  1669.2
  1669.0
  1669.0
  1595.9
  1669.1
  1522.7
  1669.0
  1668.9
  1669.2
  1669.2
  1522.7
  1522.9
  1601.4
  1669.2
  1669.2
  1440.1
  1535.5
  1538.5
  1006.6
  1276.3
   860.1
   767.9
   962.6
  1020.3
   689.2
   720.4
   627.7
   770.2
   827.4
   716.7
   693.6
   702.9
   429.6
   373.9
   479.6
   482.4
   731.5
   693.8
   565.3
   686.6
   528.5
   730.8
   539.9
   721.0
   750.4
   644.4
   623.8
   588.5
   956.8
   874.3
  1003.6
   844.7
   985.7
   959.8
  1242.1
  1225.1
  1230.2
  1045.6
  1075.2
  1361.2
  1382.8
  1522.9
  1527.9
  1522.8
  1522.8
  1661.4
  1669.1
  1669.2
  1669.3
  1669.3
  1669.3
  1669.3
  1669.0
  1669.1
  1562.1
  1669.1
  1669.2
  1669.2
  1669.2
  1669.0
  1592.9
  1669.1
  1669.0
  1669.0
  1522.8
  1669.1
  1669.0
  1522.7
  1522.7
  1522.7
  1522.8
  1668.9
  1669.0
  1522.7
  1522.7
  1522.8
  1669.2
  1604.5
  1652.7
  1669.2
  1440.5
  1461.8
  1291.7
  1058.3
  1032.3
   790.0
   632.1
   646.1
   567.4
   531.5
   528.6
   544.0
   623.1
   705.7
   541.9
   514.2
   577.4
   516.7
   556.7
   303.6
   408.3
   508.0
   539.1
   397.1
   513.8
   499.7
   447.6
   555.6
   834.1
   679.6
  1113.2
  1089.6
  1283.0
  1078.4
  1310.5
  1411.2
  1498.2
  1303.8
  1474.0
  1236.6
  1475.6
  1479.0
  1473.4
  1522.8
  1598.8
  1522.8
  1669.1
  1669.1
  1633.6