# vtk DataFile Version 3.0
divides
ASCII
DATASET UNSTRUCTURED_GRID
POINTS       7946 float
        1763.227        1358.998         366.047
        5696.069        1085.875         369.324
        4508.399        1251.944         356.152
        7814.956        1225.033         410.068
        8175.606        1201.284         347.626
       11194.461        1423.376         370.139
       10797.991         508.502         248.851
       13917.064        1197.276         389.959
       11608.906        1466.638         410.284
       14486.675        1190.754         345.012
       18416.193        1050.048         360.396
       17265.661        1708.624         398.774
       20625.517        1512.442         424.720
       21367.639         602.253         292.742
       20883.682        1520.271         380.160
       25059.583         934.795         369.488
       23794.437        1371.830         366.752
       26280.291         934.631         359.605
       27438.100        1242.447         354.349
       30012.281        1545.589         417.652
       30865.174         559.941         274.367
       30068.836        1597.967         390.575
       34456.543        1635.800         409.974
       33456.244        1255.538         354.808
       33103.703         478.066         264.545
       34608.823        1644.552         402.033
       37078.667        1316.234         363.804
       38841.217         511.781         259.408
       38266.558        1206.078         349.211
       37232.713        1269.938         400.665
       40677.838        1027.733         368.541
       41805.432        1582.291         389.690
       43344.635        1235.251         353.430
       45884.244         906.729         327.761
       47639.964        1176.415         400.833
       50516.201         869.188         356.630
       49970.550        1809.594         413.205
       49116.937         845.279         317.849
       51790.739         866.694         364.869
       52906.278        1059.472         331.501
       55445.028        1130.397         386.442
       55866.734        1110.988         339.262
       59080.209        1005.661         325.001
       61877.494        1168.060         394.571
       60519.054        1293.499         366.514
       63613.535        1451.966         422.560
       64356.926         529.009         244.989
       63807.006        1483.626         387.206
       67269.111        1209.492         354.988
       66791.951         531.238         257.160
       67743.273        1248.811         401.704
       70384.063        1671.802         404.934
       69898.259         479.654         266.475
       72136.863         913.293         311.941
       74679.070        1190.834         398.709
       72690.946         952.387         367.534
       75645.881         492.064         254.921
       75105.846        1169.668         349.582
       76243.180        1571.838         404.947
       78327.567        1387.427         438.387
       78638.219        1384.607         378.703
       79479.851         687.199         587.395
         863.533        1712.003         488.219
        1600.361        3199.416         530.647
         726.139        2656.006         529.455
        3395.716        1670.248         546.822
        4912.736        2704.627         565.147
        3521.139        2865.454         592.453
        4935.950        1609.871         427.142
        7566.412        3159.816         568.444
        9186.530        1947.909         509.993
        7342.913        2266.813         520.417
        7616.683        1632.718         435.289
        9222.380        3118.850         575.859
        8872.511        1386.326         455.998
       12473.255        1933.788         497.694
       12703.070        2360.657         521.051
       10596.300        2156.543         395.256
       16730.452        1908.913         505.768
       17511.449        1892.162         426.864
       16685.484        2109.465         535.403
       17367.894        2595.286         581.188
       20480.163        1791.847         432.452
       20723.789        2988.201         594.600
       21460.967        2333.698         550.256
       21312.076        1686.038         436.223
       20403.702        2219.272         519.999
       24447.953        2203.615         490.540
       22630.528        2487.101         541.552
       23150.238        1649.292         433.080
       24323.545        1708.742         432.928
       27267.588        2746.971         539.060
       29507.200        1611.311         598.830
       29392.142        2448.074         602.477
       26972.849        1575.814         418.753
       30307.980        1682.572         481.203
       30182.928        2096.241         575.243
       32129.819        1996.836         423.556
       35749.169        1624.976         656.809
       37313.741        1497.314         413.307
       37021.219        1920.878         521.707
       39064.919        1750.093         402.773
       38079.437        4747.982         559.569
       39466.507        2886.788         485.485
       41371.649        2344.478         543.930
       42129.234        2772.445         584.694
       42355.123        2237.135         529.568
       42258.214        1858.848         444.006
       41453.984        1807.916         433.497
       44419.017        1673.008         427.001
       49685.706        1560.896         556.723
       50139.728        1988.205         491.921
       49680.878        1799.313         518.232
       49351.654        2286.546         681.426
       54536.397        1534.835         518.519
       52093.408        2214.456         471.928
       52286.078        1503.420         403.600
       57228.218        3387.081         591.441
       56918.017        1569.859         500.395
       53899.413        2564.483         583.107
       60126.391        1541.716         414.223
       57942.819        3560.508         507.208
       61295.520        2330.303         603.405
       60143.859        1993.924         505.187
       61016.016        1553.364         490.604
       63103.288        2271.392         616.093
       63407.368        1656.290         465.026
       63878.097        1992.069         453.938
       68306.610        1969.478         458.389
       68142.359        1419.289         442.798
       69859.106        2506.614         590.119
       70799.698        1812.856         475.245
       70899.840        2190.549         533.924
       70068.219        1988.288         432.721
       73975.286        1555.353         501.053
       73748.032        3849.328         609.991
       73677.259        2235.869         542.604
       76877.629        1671.863         626.454
       79216.621        1673.524         447.851
       78679.685        2415.258         513.217
         661.338        3785.571         502.529
        4447.120        4332.402         761.254
        3843.641        3242.226         646.264
        2950.880        3428.181         575.795
        5634.633        4160.410         618.397
        5380.788        3290.771         402.073
        8900.209        6061.787         755.697
        8413.369        4978.859         725.212
        9944.491        3350.202         564.002
       10884.230        4154.930         710.545
        8893.222        3717.119         619.886
       10622.938        2591.521         427.366
       12129.540        2840.241         550.081
       16902.491        3361.558         543.659
       11714.968        4274.571         583.106
       17708.597        4149.998         535.311
       16316.879        3802.764         611.916
       17840.809        3161.522         455.367
       22593.386        4927.137         652.324
       21757.617        4089.095         598.233
       23433.251        3297.156         614.606
       21416.740        3636.543         573.646
       24118.080        3369.337         510.472
       26945.900        3069.373         493.485
       28589.505        4353.644         745.870
       28012.430        3050.783         679.546
       27216.712        3868.940         673.457
       30945.385        4899.548         667.306
       31078.242        3545.036         591.307
       34028.151        2518.653         408.065
       32181.171        2361.618         444.210
       35468.611        2653.872         544.743
       35112.332        2124.871         581.222
       41421.652        4438.831         533.214
       41737.007        3807.389         535.618
       38368.450        4841.076         583.764
       42939.010        4757.078         547.855
       44943.319        2973.909         521.153
       44284.584        2523.229         474.345
       46494.050        4747.287         569.057
       47654.325        3080.457         534.504
       47064.212        2298.386         489.393
       44962.056        4850.139         593.873
       47721.912        3345.226         519.506
       48717.630        3126.036         562.853
       48169.006        4149.164         642.837
       48306.356        4352.376         596.193
       52592.231        2974.030         495.517
       55480.639        3348.892         684.201
       52004.822        4204.204         647.381
       56407.404        3567.396         646.722
       54589.670        4420.662         813.461
       56188.429        4257.433         764.130
       61417.724        3172.585         550.242
       62341.316        3870.820         556.210
       62711.318        3081.727         507.528
       60815.192        4020.619         634.410
       65577.931        4202.784         547.047
       65852.119        3133.739         532.424
       67033.810        3705.021         734.350
       67416.959        3445.633         559.650
       67468.157        3431.561         563.793
[...]
POINT_DATA       7946
SCALARS height float 1
LOOKUP_TABLE default
   366.0
   369.3
   356.2
   410.1
   347.6
   370.1
   248.9
   390.0
   410.3
   345.0
   360.4
   398.8
   424.7
   292.7
   380.2
   369.5
   366.8
   359.6
   354.3
   417.7
   274.4
   390.6
   410.0
   354.8
   264.5
   402.0
   363.8
   259.4
   349.2
   400.7
   368.5
   389.7
   353.4
   327.8
   400.8
   356.6
   413.2
   317.8
   364.9
   331.5
   386.4
   339.3
   325.0
   394.6
   366.5
   422.6
   245.0
   387.2
   355.0
   257.2
   401.7
   404.9
   266.5
   311.9
   398.7
   367.5
   254.9
   349.6
   404.9
   438.4
   378.7
   587.4
   488.2
   530.6
   529.5
   546.8
   565.1
   592.5
   427.1
   568.4
   510.0
   520.4
   435.3
   575.9
   456.0
   497.7
   521.1
   395.3
   505.8
   426.9
   535.4
   581.2
   432.5
   594.6
   550.3
   436.2
   520.0
   490.5
   541.6
   433.1
   432.9
   539.1
   598.8
   602.5
   418.8
   481.2
   575.2
   423.6
   656.8
   413.3
   521.7
   402.8
   559.6
   485.5
   543.9
   584.7
   529.6
   444.0
   433.5
   427.0
   556.7
   491.9
   518.2
   681.4
   518.5
   471.9
   403.6
   591.4
   500.4
   583.1
   414.2
   507.2
   603.4
   505.2
   490.6
   616.1
   465.0
   453.9
   458.4
   442.8
   590.1
   475.2
   533.9
   432.7
   501.1
   610.0
   542.6
   626.5
   447.9
   513.2
   502.5
   761.3
   646.3
   575.8
   618.4
   402.1
   755.7
   725.2
   564.0
   710.5
   619.9
   427.4
   550.1
   543.7
   583.1
   535.3
   611.9
   455.4
   652.3
   598.2
   614.6
   573.6
   510.5
   493.5
   745.9
   679.5
   673.5
   667.3
   591.3
   408.1
   444.2
   544.7
   581.2
   533.2
   535.6
   583.8
   547.9
   521.2
   474.3
   569.1
   534.5
   489.4
   593.9
   519.5
   562.9
   642.8
   596.2
   495.5
   684.2
   647.4
   646.7
   813.5
   764.1
   550.2
   556.2
   507.5
   634.4
   547.0
   532.4
   734.3
   559.7
   563.8
   736.2
   601.0
   643.9
   578.3
   759.5
   691.8
   619.9
   672.9
   713.9
   568.6
   420.8
   435.4
   611.4
   432.5
   220.4
   560.6
   465.0
   640.9
   644.3
   703.1
   873.7
   655.0
   766.4
   913.8
   741.2
   806.8
   649.1
   835.4
   581.0
   481.5
   605.4
   560.2
   608.4
   639.0
   851.5
   726.7
   871.2
   769.4
   638.9
   767.7
   808.7
   763.0
   978.6
   992.1
   535.3
   597.8
   799.2
   846.4
   637.9
   639.3
   897.4
   845.9
   643.2
   738.5
   743.4
   799.2
   628.2
   801.6
   739.1
   576.3
   649.2
   766.6
   709.9
   827.6
   819.0
   717.3
   774.1
   838.1
   868.5
   723.8
   906.4
   854.8
   817.9
   869.9
   884.8
   576.3
   636.8
   609.9
   673.9
   671.8
   662.1
   739.2
   741.1
   787.0
   712.4
   801.7
   621.9
   729.7
   708.8
   888.2
   861.5
   473.8
   501.5
   432.7
   593.9
   763.8
   901.2
   782.2
   650.2
   675.5
   926.2
   974.4
   733.4
   792.4
   866.1
   830.6
   741.2
   760.7
   598.2
   744.7
   768.9
   966.4
   774.9
   936.6
   753.1
   909.7
   914.6
   997.9
   981.4
  1091.7
   997.0
  1011.8
  1096.1
   739.3
   921.7
   988.8
   955.8
   758.5
   963.0
   946.9
   845.9
   907.7
   891.9
  1023.2
   999.1
   877.4
   863.3
   878.9
   996.9
   990.5
   982.5
  1029.2
   821.4
   891.1
   775.9
   904.9
   902.0
   915.8
  1107.5
  1102.7
  1001.4
   806.9
   664.1
   674.2
   713.2
   773.4
   808.9
   957.8
   969.8
   954.9
   900.0
   895.5
  1063.7
  1066.3
  1075.3
   883.1
   921.2
   767.7
   923.7
   910.3
   921.1
   739.3
   870.2
   697.8
   691.2
   923.6
   422.7
   549.6
   518.3
   432.8
   520.2
   478.7
   649.4
   609.8
  1040.9
  1041.9
   944.9
   782.8
   984.9
   935.8
  1006.0
  1098.2
  1099.2
   930.8
  1132.8
  1130.2
  1068.9
  1104.2
  1076.5
  1072.4
  1022.8
   853.9
  1035.1
  1033.7
   895.7
  1043.4
   973.3
   913.5
  1023.1
  1023.1
  1023.1
  1023.1
  1164.6
  1138.7
  1169.2
   947.6
  1097.3
  1124.4
   866.1
   966.8
  1070.0
  1053.3
  1046.1
  1047.4
  1056.5
  1052.6
  1053.3
  1054.3
  1046.6
   931.8
  1120.0
  1022.8
  1115.3
  1022.8
  1145.6
  1048.0
  1145.5
  1142.3
  1140.7
  1145.1
  1169.0
  1155.7
  1080.8
  1169.1
  1150.6
  1093.9
  1149.6
  1148.1
   881.0
   873.1
   906.8
  1014.5
   907.6
  1033.8
  1016.8
   990.7
  1014.5
  1011.8
  1165.5
  1130.1
  1071.6
  1108.8
  1108.4
  1058.7
  1116.8
   981.9
   882.1
   951.2
   601.2
   526.9
   560.1
   513.0
   443.8
   400.8
   412.9
   473.5
   540.2
   452.4
   492.3
   762.8
   884.7
   934.9
   936.4
   876.0
   996.7
  1169.1
  1115.2
  1109.4
  1104.8
  1169.1
  1089.8
  1169.1
  1089.0
  1157.6
  1096.4
  1169.2
  1169.2
  1022.9
  1022.9
  1022.9
  1124.2
  1164.1
  1161.3
  1124.0
  1166.2
  1166.4
  1161.7
  1123.7
  1169.1
  1169.1
  1169.1
  1042.0
   935.3
  1022.8
  1022.8
  1022.8
  1022.8
  1167.6
  1167.6
  1169.0
  1169.0
  1155.7
  1155.8
  1141.6
  1022.8
  1022.8
  1093.9
  1169.1
  1169.1
  1022.8
  1093.9
  1006.3
  1022.9
  1169.2
  1022.8
   924.7
  1169.2
  1169.2
  1022.9
  1023.0
  1023.0
  1169.2
  1169.1
  1156.8
  1169.1
   692.3
   821.4
   899.8
   634.1
   543.5
   512.1
   538.5
   544.2
   608.7
   698.4
   663.5
   698.5
   944.7
  1039.4
  1010.3
  1022.8
  1022.7
  1022.8
  1022.7
  1026.8
  1169.1
  1022.8
  1022.8
  1022.8
  1022.8
  1022.7
  1169.0
  1169.1
  1169.1
  1169.0
  1157.2
  1034.3
  1169.2
  1022.9
  1169.2
  1096.4
  1145.1
  1161.7
  1022.8
  1161.1
  1161.9
  1148.7
  1169.1
  1169.0
  1062.3
  1169.1
  1022.8
  1042.0
  1042.0
  1042.0
  1169.1
  1022.8
  1022.8
  1169.0
  1169.0
  1169.0
  1022.7
  1169.1
  1169.1
  1169.1
  1169.0
  1093.9
  1093.9
  1110.4
  1169.1
  1022.9
  1169.1
  1022.9
  1022.9
  1133.5
  1169.2
  1169.2
  1090.7
  1169.2
  1169.1
  1022.9
   927.2
  1022.9
   926.0
   697.4
   881.0
   527.2
   448.3
   496.3
   261.6
   519.1
   616.0
   749.6
   935.4
   758.4
   774.1
  1048.6
  1052.7
  1086.7
  1084.4
  1022.8
  1022.8
  1026.8
  1026.8
  1026.8
  1022.7
  1169.1
  1070.4
  1096.4
  1022.7
  1034.3
  1169.1
  1066.0
  1022.5
  1022.8
  1169.1
  1022.8
  1022.5
  1062.3
  1062.3
  1062.3
  1169.1
  1169.1
  1169.1
  1169.1
  1169.0
  1169.3
  1169.1
  1169.1
  1023.0
  1169.0
  1022.8
  1169.0
  1169.0
  1169.0
  1169.0
  1022.7
  1022.7
  1022.7
  1022.8
  1110.4
  1110.4
  1110.4
  1022.8
  1169.1
  1169.1
  1169.1
  1169.1
  1169.1
  1169.1
  1090.7
  1090.7
  1090.7
  1169.1
  1169.2
  1133.5
   944.3
   802.2
   895.0
   949.3
   663.7
   654.1
   558.2
   459.0
   348.4
   371.8
   467.0
   464.3
   551.1
   576.3
   436.8
   441.0
   841.1
   778.0
   702.1
   759.9
   904.7
  1084.2
  1096.3
  1169.1
  1099.5
  1169.1
  1169.1
  1169.1
  1022.8
  1022.7
  1169.1
  1022.7
  1022.7
  1169.2
  1034.3
  1169.2
  1169.2
  1022.9
  1042.5
  1022.5
  1169.1
  1022.5
  1022.6
  1022.8
  1169.0
  1022.8
  1093.5
  1115.4
  1022.8
  1022.7
  1022.8
  1169.0
  1022.8
  1169.0
  1169.1
  1022.8
  1169.0
  1098.3
  1169.0
  1169.1
  1169.0
  1022.8
  1022.8
  1022.8
  1022.8
  1169.1
  1169.1
  1169.2
  1169.1
  1169.1
  1169.0
  1169.1
  1133.5
  1133.5
  1168.2
  1084.9
  1055.1
  1169.1
   885.2
  1046.4
   872.5
   715.4
   597.1
   608.6
   661.1
   469.0
   442.5
   468.0
   510.4
   731.5
  1022.8
  1103.7
  1094.9
  1169.1
  1169.1
  1022.8
  1022.7
  1022.7
  1022.7
  1022.7
  1169.2
  1169.2
  1169.2
  1169.1
  1034.3
  1169.1
  1022.9
  1169.1
  1066.0
  1022.9
  1022.9
  1022.9
  1169.0
  1169.0
  1169.0
  1115.4
  1093.5
  1022.8
  1022.8
  1042.0
  1024.9
  1022.8
  1022.7
  1022.8
  1022.8
  1022.8
  1169.1
  1169.1
  1022.8
  1169.0
  1169.0
  1098.3
  1169.1
  1169.1
  1169.1
  1163.3
  1169.1
  1022.8
  1169.1
  1169.0
  1169.0
  1022.8
  1168.3
  1073.4
  1168.3
   964.9
   887.0
  1086.9
   660.8
   732.1
   477.2
   432.4
   594.0
   563.7
   476.6
   353.0
   420.3
   419.2
   546.9
   616.6
   640.4
   618.7
   861.8
   912.3
   892.8
   629.8
  1022.8
  1075.4
   938.9
  1022.8
  1022.8
  1022.8
  1169.1
  1169.1
  1169.1
  1169.2
  1169.1
  1169.2
  1169.1
  1169.1
  1169.1
  1169.1
  1136.5
  1169.0
  1169.0
  1169.0
  1022.8
  1169.0
  1169.0
  1169.0
  1022.8
  1022.7
  1022.8
  1169.1
  1032.0
  1169.1
  1022.7
  1098.3
  1169.0
  1169.0
  1169.0
  1022.8
  1169.0
  1169.1
  1169.0
  1169.1
  1169.1
  1022.8
  1022.8
  1022.8
  1022.8
  1169.1
  1067.5
  1169.1
  1022.8
  1123.6
  1169.1
  1160.7
  1169.1
  1169.1
   959.7
   735.6
   861.8
   627.1
   853.3
   463.8
   519.4
   436.7
   465.0
   656.6
   693.4
   532.1
   636.3
   632.4
  1081.3
  1022.9
   941.1
  1023.0
  1022.9
  1022.9
  1169.2
  1169.3
  1169.1
  1169.2
  1169.1
  1169.2
  1169.1
  1169.2
  1169.1
  1169.2
  1169.1
  1169.2
  1169.1
  1169.1
  1169.1
  1169.1
  1169.1
  1169.0
  1169.1
  1169.0
  1022.8
  1022.8
  1022.8
  1022.8
  1024.9
  1022.9
  1169.0
  1042.0
  1169.0
  1022.6
  1022.7
  1022.7
  1022.7
  1022.6
  1022.8
  1169.1
  1022.8
  1022.8
  1107.4
  1169.0
  1169.0
  1107.4
  1169.1
  1169.1
  1022.7
  1126.6
  1067.5
  1067.5
  1067.8
  1169.1
  1169.1
  1120.2
  1022.8
   750.4
   709.6
   637.6
   638.3
   490.4
   458.9
   580.7
   410.7
   496.7
   446.6
   671.4
  1166.6
  1166.3
  1023.0
   912.5
  1079.9
  1169.1
  1169.2
  1169.3
  1026.8
  1169.1
  1022.8
  1169.1
  1040.2
  1169.2
  1169.2
  1022.9
  1169.1
  1022.9
  1022.9
  1093.6
  1169.1
  1089.0
  1022.8
  1169.1
  1022.8
  1022.8
  1169.1
  1169.1
  1169.1
  1169.1
  1091.3
  1022.9
  1042.0
  1022.6
  1022.6
  1022.8
  1022.8
  1022.6
  1022.9
  1169.0
  1169.1
  1022.9
  1107.4
  1022.7
  1107.4
  1022.7
  1022.7
  1022.7
  1169.2
  1169.1
  1168.9
  1169.2
  1067.8
  1169.1
  1022.8
  1067.8
  1022.8
  1022.8
   952.2
  1138.8
  1090.4
  1023.8
   933.2
   936.0
   780.0
   929.1
   641.5
   788.3
   760.7
   500.8
   467.0
   583.6
   451.1
   297.2
   455.1
   549.9
   570.2
   402.9
   438.5
   578.6
   732.6
   549.9
   593.0
   667.9
  1064.8
  1065.6
   898.3
  1169.3
  1169.3
  1023.0
  1169.2
  1169.3
  1169.1
  1169.1
  1169.1
  1022.8
  1150.4
  1169.2
  1169.1
  1031.0
  1169.1
  1169.1
  1169.1
  1169.0
  1169.1
  1169.2
  1089.0
  1169.1
  1169.1
  1169.2
  1149.1
  1169.2
  1022.7
  1022.6
  1022.6
  1022.6
  1022.7
  1022.6
  1022.6
  1022.6
  1022.6
  1169.1
  1022.9
  1169.1
  1022.9
  1022.6
  1168.9
  1022.9
  1168.9
  1168.9
  1168.9
  1022.8
  1067.8
  1022.8
  1168.9
  1022.8
  1143.5
  1090.4
  1169.1
   980.1
  1169.1
  1169.1
   977.9
   893.1
   968.3
   773.7
   773.8
   447.8
   536.8
   422.9
   566.6
   551.8
   462.9
   485.5
   779.3
   625.5
   765.3
   844.6
  1082.1
  1096.5
  1092.9
  1023.0
  1023.0
  1169.0
  1169.2
  1073.7
  1023.0
  1169.1
  1040.2
  1026.8
  1142.9
  1023.0
  1169.1
  1168.9
  1169.1
  1150.4
  1023.1
  1169.1
  1169.1
  1169.1
  1023.1
  1169.0
  1089.0
  1169.1
  1022.8
  1169.1
  1169.2
  1149.1
  1074.8
  1149.1
  1149.1
  1169.2
  1169.0
  1022.9
  1022.7
  1022.7
  1022.7
  1169.1
  1169.1
  1022.9
  1169.1
  1169.1
  1022.9
  1022.9
  1022.9
  1169.1
  1169.0
  1022.6
  1045.5
  1168.9
  1022.6
  1168.9
  1022.9
  1168.9
  1067.6
  1022.6
  1022.8
  1067.6
  1169.1
  1169.1
  1169.1
  1169.1
   964.7
   936.1
  1169.1
   794.8
   902.4
   516.7
   489.4
   566.7
   405.6
   578.1
   430.3
   452.1
   459.4
   832.5
   818.1
  1115.5
   906.5
  1169.0
  1022.8
  1163.9
  1169.0
  1169.2
  1169.1
  1023.0
  1022.8
  1150.4
  1168.9
  1022.8
  1169.3
  1168.9
  1023.1
  1022.9
  1022.8
  1129.9
  1169.1
  1074.8
  1074.8
  1067.2
  1169.2
  1169.2
  1169.1
  1022.9
  1169.0
  1169.1
  1169.0
  1169.1
  1169.1
  1156.9
  1169.0
  1169.1
  1169.0
  1169.0
  1115.7
  1168.8
  1022.6
  1115.7
  1022.6
  1022.6
  1168.9
  1041.5
  1022.9
  1022.8
  1067.6
  1067.6
  1067.6
  1067.6
  1022.8
  1169.1
  1169.1
  1022.8
   967.3
   909.8
   961.9
   669.0
   693.6
   571.3
   370.7
   523.7
   444.8
   486.7
   531.4
   682.0
   756.9
   875.7
   916.3
   667.6
  1022.8
   942.5
  1164.2
  1169.1
  1022.8
  1169.0
  1022.7
  1168.9
  1169.1
  1168.9
  1169.2
  1022.7
  1169.1
  1169.1
  1067.2
  1022.9
  1067.2
  1067.3
  1169.1
  1169.0
  1169.2
  1022.9
  1169.2
  1022.8
  1169.1
  1022.7
  1169.1
  1169.1
  1022.7
  1169.1
  1022.7
  1169.1
  1022.6
  1022.8
  1115.7
  1115.7
  1045.5
  1168.9
  1045.5
  1022.6
  1041.5
  1169.1
  1169.1
  1022.6
  1169.1
  1169.1
  1022.8
  1022.8
  1022.8
  1022.8
  1011.1
  1022.8
   906.5
   882.8
  1009.7
   823.8
   483.9
   602.0
   681.8
   428.3
   636.3
   630.5
   524.1
   661.6
   558.4
   593.3
   637.6
   918.1
   944.3
   933.8
  1022.8
  1022.8
  1169.1
  1169.1
  1169.1
  1022.7
  1022.7
  1022.7
  1169.1
  1022.9
  1022.9
  1169.1
  1169.0
  1169.1
  1169.0
  1169.1
  1023.0
  1023.0
  1023.0
  1169.1
  1169.1
  1022.9
  1022.9
  1022.9
  1022.9
  1022.8
  1022.8
  1022.7
  1022.7
  1022.7
  1022.7
  1022.6
  1169.1
  1169.0
  1169.2
  1022.6
  1022.6
  1022.6
  1022.6
  1168.9
  1041.5
  1022.6
  1022.6
  1022.6
  1022.7
  1169.1
  1169.1
  1169.0
  1169.0
  1169.0
  1022.7
  1164.0
   837.0
   850.1
   827.4
   438.2
   439.8
   505.9
   378.1
   534.5
   489.0
   433.5
   461.3
   470.3
   541.7
   579.2
   495.0
   582.1
   705.0
   772.6
   839.2
   998.8
   986.4
  1169.0
  1130.4
  1169.0
  1169.1
  1169.0
  1130.0
  1022.7
  1169.0
  1169.1
  1169.2
  1022.7
  1169.1
  1022.7
  1022.8
  1169.1
  1022.7
  1169.1
  1169.2
  1022.8
  1169.2
  1169.1
  1169.1
  1169.1
  1169.1
  1169.1
  1023.0
  1169.3
  1169.1
  1169.2
  1169.1
  1023.0
  1156.3
  1169.0
  1169.0
  1169.0
  1022.8
  1169.0
  1169.0
  1169.2
  1169.1
  1169.2
  1169.1
  1022.6
  1022.7
  1022.6
  1022.6
  1169.1
  1169.1
  1168.9
  1169.1
  1168.9
  1168.9
  1169.0
  1168.9
  1169.1
  1022.7
  1022.8
  1022.7
  1022.7
  1022.7
  1029.9
   889.7
   849.0
   843.2
   901.8
   652.1
   698.6
   537.7
   562.5
   608.6
   590.8
   545.4
   506.3
   467.2
   820.0
   739.9
  1022.8
   929.9
  1133.5
  1084.4
  1169.1
  1022.7
  1022.7
  1022.7
  1022.7
  1022.7
  1022.7
  1022.8
  1022.7
  1022.8
  1022.8
  1169.1
  1022.8
  1022.8
  1169.1
  1169.1
  1169.1
  1169.1
  1169.1
  1147.1
  1169.3
  1022.8
  1023.0
  1023.0
  1169.1
  1022.8
  1022.8
  1022.8
  1169.0
  1169.1
  1169.0
  1022.9
  1169.1
  1169.1
  1022.8
  1169.1
  1022.8
  1169.1
  1169.1
  1169.1
  1169.1
  1156.1
  1169.1
  1169.1
  1022.8
  1022.8
  1022.8
  1022.7
  1019.4
   645.1
   434.4
   613.1
   420.8
   526.8
   527.0
   311.1
   482.4
   435.4
   408.0
   541.3
   600.9
   710.9
   769.7
   642.0
  1019.1
   937.9
  1096.9
  1022.8
  1022.8
  1022.8
  1085.9
  1169.1
  1022.9
  1169.1
  1169.1
  1169.1
  1022.9
  1022.7
  1022.8
  1022.7
  1169.1
  1022.7
  1022.8
  1023.0
  1169.2
  1169.1
  1022.8
  1023.0
  1022.8
  1022.8
  1169.1
  1169.1
  1169.1
  1022.9
  1169.2
  1169.2
  1169.1
  1169.2
  1169.2
  1169.2
  1163.6
  1169.1
  1169.2
  1169.1
  1169.1
  1169.2
  1169.1
  1169.2
  1169.1
  1169.1
  1169.1
  1169.1
  1169.1
  1169.1
  1098.4
  1169.1
  1169.1
  1022.8
  1169.1
  1169.1
  1169.1
  1039.5
  1169.1
  1169.1
  1029.9
  1153.1
  1154.2
  1009.0
   559.6
   676.6
   690.8
   427.1
   575.9
   510.9
   593.5
   587.3
   649.7
   702.2
   761.1
   650.4
   891.3
   912.8
   808.5
  1161.7
  1139.6
   943.1
  1169.2
  1085.9
  1022.8
  1162.4
  1085.9
  1022.8
  1022.9
  1169.1
  1022.7
  1022.7
  1022.7
  1023.0
  1169.0
  1023.0
  1023.0
  1022.8
  1169.2
  1169.2
  1152.8
  1169.2
  1169.2
  1169.2
  1169.2
  1169.2
  1169.2
  1169.2
  1169.1
  1161.3
  1150.3
  1169.1
  1169.1
  1169.1
  1022.9
  1169.1
  1169.1
  1169.1
  1169.1
  1022.8
  1022.6
  1169.2
  1022.9
  1096.2
  1022.6
  1059.4
  1029.9
  1168.1
  1059.4
   879.8
   784.8
   865.4
   866.0
   545.8
   737.6
   545.4
   633.7
   747.4
   504.4
   487.0
   534.9
   491.2
   433.7
   369.4
   669.2
   469.8
   407.9
   488.7
   503.8
   624.2
   760.5
   745.9
   784.9
   902.0
   936.3
   938.7
  1162.3
  1022.8
  1022.8
  1022.8
  1022.7
  1169.1
  1169.0
  1169.1
  1169.1
  1169.0
  1022.7
  1022.8
  1169.0
  1147.8
  1022.7
  1022.7
  1022.7
  1022.7
  1169.3
  1169.3
  1169.3
  1022.8
  1022.8
  1022.8
  1022.8
  1022.8
  1169.2
  1169.2
  1169.2
  1131.8
  1022.7
  1169.2
  1169.1
  1169.1
  1169.2
  1131.8
  1169.1
  1022.8
  1022.8
  1169.1
  1150.3
  1150.3
  1150.3
  1169.2
  1022.9
  1022.9
  1022.8
  1022.6
  1022.8
  1022.9
  1013.7
  1022.9
  1144.4
  1168.1
  1086.0
   903.6
  1075.0
   878.4
   537.7
   499.8
   395.8
   449.9
   517.1
   462.4
   628.7
   927.1
   817.9
  1080.0
  1080.9
  1087.7
  1072.2
  1169.1
  1169.2
  1162.5
  1169.1
  1169.1
  1022.7
  1022.7
  1022.7
  1022.7
  1022.7
  1022.8
  1022.8
  1147.8
  1147.8
  1169.3
  1023.0
  1169.1
  1169.1
  1169.3
  1023.0
  1169.1
  1169.2
  1169.1
  1169.2
  1169.2
  1169.2
  1169.2
  1022.7
  1022.7
  1022.7
  1022.8
  1022.8
  1022.8
  1022.8
  1169.0
  1157.3
  1022.9
  1022.9
  1022.9
  1022.8
  1022.8
  1022.8
  1022.8
  1169.2
  1169.2
  1169.2
  1169.2
  1150.8
  1169.2
  1169.2
  1169.1
  1169.1
  1169.1
  1168.9
  1169.1
  1096.2
  1168.8
  1168.8
  1168.8
  1139.2
  1095.7
   963.2
  1105.7
  1142.1
  1169.1
  1096.2
   905.4
   681.3
   815.5
   731.3
   510.6
   558.5
   534.8
   451.2
   486.3
   797.4
   581.4
   852.6
   841.7
   757.1
   976.4
  1097.3
  1097.0
  1023.0
  1159.1
  1022.9
  1022.8
  1169.1
  1113.7
  1034.8
  1113.7
  1113.7
  1113.7
  1169.1
  1022.8
  1169.1
  1169.2
  1169.1
  1169.2
  1022.9
  1169.2
  1169.3
  1023.0
  1169.2
  1023.0
  1169.1
  1169.2
  1169.2
  1169.2
  1169.2
  1022.9
  1022.9
  1131.8
  1169.2
  1169.0
  1169.0
  1095.9
  1169.1
  1022.7
  1169.0
  1168.9
  1169.1
  1169.2
  1022.7
  1022.9
  1169.1
  1169.2
  1169.2
  1169.1
  1169.1
  1169.1
  1169.1
  1147.2
  1111.4
  1169.1
  1168.9
  1169.1
   952.1
  1102.3
  1168.8
   922.6
   850.2
   949.8
   678.8
   827.3
   450.2
   372.3
   474.5
   468.1
   724.7
   632.9
   524.2
   655.8
   598.3
   711.2
   686.6
   814.6
   941.4
   975.9
   862.1
  1023.0
  1158.7
  1022.9
  1022.9
  1022.9
  1022.9
  1022.9
  1034.8
  1022.8
  1169.1
  1022.8
  1022.8
  1169.1
  1169.1
  1169.2
  1169.3
  1169.3
  1169.3
  1169.3
  1169.0
  1169.1
  1071.3
  1169.1
  1169.2
  1169.2
  1169.2
  1169.1
  1131.8
  1169.1
  1169.0
  1169.0
  1022.8
  1169.1
  1169.0
  1022.7
  1022.7
  1022.7
  1022.8
  1168.9
  1169.0
  1022.7
  1022.7
  1022.8
  1169.1
  1169.2
  1169.2
  1169.2
  1022.9
  1022.9
  1022.8
  1169.1
  1169.1
  1022.9
  1022.8
  1022.9
  1005.5
   902.9
   898.4
   734.3
   879.9
   620.1
   548.9
   513.3
   539.7
   483.1
   550.5
   287.9
   420.1
   481.6
   401.0
   490.3
   552.2
   447.8
   441.9
   713.8
  1166.6
  1023.0
  1051.3
  1023.0
  1023.0
  1169.1
  1169.1
  1022.8
  1169.1
  1136.3
  1022.8
  1169.3
  1169.2
  1133.6
  1168.8
  1169.3
  1169.3
  1169.2
  1169.2
  1169.2
  1169.2
  1169.2
  1169.1
  1169.2
  1169.1
  1022.9
  1022.9
  1144.6
  1169.2
  1169.1
  1169.2
  1169.0
  1169.2
  1169.1
  1169.1
  1169.1
  1022.8
  1169.1
  1022.8
  1022.9
  1022.8
  1022.8
  1022.8
  1169.1
  1169.1
  1128.1
  1169.2
  1169.1
  1169.2
  1128.1
  1169.1
  1169.2
  1022.8
  1169.2
  1022.9
  1022.8
  1022.9
  1022.6
  1022.9
   884.2
  1010.2
   746.3
   608.2
   545.6
   611.8
   607.4
   639.4
   403.3
   553.3
   481.1
   513.0
   472.0
   826.0
   937.1
   918.4
   918.7
   689.6
   830.2
  1054.2
  1036.7
  1054.0
  1169.3
  1023.0
  1169.3
  1169.2
  1169.1
  1023.0
  1169.1
  1022.8
  1169.1
  1022.8
  1169.1
  1023.0
  1169.1
  1169.3
  1169.3
  1169.3
  1169.1
  1023.0
  1023.0
  1023.0
  1023.0
  1169.2
  1169.2
  1169.2
  1169.2
  1169.2
  1022.9
  1169.1
  1169.1
  1169.1
  1022.8
  1169.1
  1169.2
  1022.9
  1169.1
  1143.8
  1169.1
  1022.8
  1022.9
  1022.9
  1022.9
  1169.1
  1169.1
  1096.1
  1022.8
  1022.8
  1152.6
  1169.1
  1169.1
  1169.1
  1169.1
  1022.8
  1022.8
  1022.8
  1148.8
  1067.6
  1165.5
  1059.4
   936.0
   642.6
   503.7
   618.3
   658.7
   539.6
   396.2
   451.4
   456.7
   343.4
   444.9
   402.0
   480.4
   647.7
   579.8
   590.7