# vtk DataFile Version 3.0
divides
ASCII
DATASET UNSTRUCTURED_GRID
POINTS       8666 float
        1765.043        1374.119         367.884
        5687.091        1074.996         368.069
        4504.568        1268.392         358.221
        7839.083        1245.921         412.922
        8179.881        1230.529         351.377
       11194.511        1410.567         369.448
       10797.385         509.268         249.226
       13880.066        1157.622         385.838
       11617.767        1455.726         410.073
       14484.648        1162.915         342.042
       18380.481        1004.104         354.452
       17235.280        1863.882         411.869
       20683.080        1573.516         431.240
       21387.595         623.425         297.835
       20888.104        1600.594         388.111
       25029.198         907.988         365.720
       23788.513        1411.364         371.280
       26307.524         906.957         355.645
       27444.412        1275.385         358.559
       29977.192        1500.851         414.064
       30953.306         666.027         299.493
       34371.219        1472.852         395.367
       33466.540        1165.613         344.403
       33111.935         470.136         260.157
       36905.179        1270.059         431.462
       34670.423        1473.190         386.621
       38836.989         506.877         256.922
       38269.579        1178.777         346.272
       37214.391        1289.872         403.657
       40738.535         960.086         359.103
       41828.596        1760.709         406.191
       43332.862        1134.704         341.366
       45890.679         895.416         326.199
       47653.555        1189.310         403.138
       50458.882         814.810         347.478
       48526.223        1178.428         391.998
       49916.606        1546.152         390.484
       51853.488         812.810         355.958
       52905.047        1047.196         330.238
       55452.393        1138.363         388.356
       55865.411        1122.013         341.175
       59086.529         952.602         317.034
       61909.169        1202.398         399.717
       60501.849        1372.710         376.210
       63548.618        1374.294         414.646
       64347.690         515.320         238.649
       63819.409        1388.278         377.282
       67269.572        1217.552         356.465
       66788.239         536.071         259.500
       67737.862        1255.205         403.130
       70383.677        1712.289         409.397
       69908.590         469.777         260.988
       72135.341         903.139         310.494
       74671.219        1182.171         398.519
       72699.341         943.592         366.802
       75644.708         490.769         254.251
       75106.670        1159.433         348.847
       76244.784        1567.310         405.578
       78343.701        1402.081         441.403
       78641.844        1405.680         381.880
       79474.007         694.920         605.673
         870.933        1712.963         497.559
        1607.025        3158.155         539.976
         734.351        2649.854         541.666
        3387.195        1671.146         560.538
        4819.711        2481.171         553.859
        3475.233        2930.892         615.502
        4915.488        1607.854         427.713
        7698.239        2848.021         563.984
        9088.104        1910.593         514.917
        7446.087        2187.789         524.379
        7650.495        1630.148         437.308
        9139.863        2991.151         588.294
        8849.982        1393.346         462.037
       12433.983        1935.194         493.335
       12613.403        2338.042         514.529
       10603.935        2154.276         386.591
       16911.547        1912.948         510.043
       17330.889        1909.615         431.066
       16867.754        2045.347         535.049
       17323.449        2386.225         572.958
       20587.397        1794.663         430.010
       20802.150        2458.786         564.823
       21399.717        2275.815         574.607
       21250.638        1703.422         450.452
       20515.213        2125.565         502.830
       24310.800        2125.017         479.577
       22675.288        2458.876         561.343
       23176.516        1655.788         442.563
       24267.033        1716.777         430.885
       27296.329        2609.801         545.342
       29390.998        1610.841         618.022
       29099.955        2317.110         608.944
       27024.066        1578.441         416.149
       30350.698        1694.733         472.813
       30413.697        1312.759         535.628
       30181.379        2089.867         547.264
       32093.377        1996.891         404.783
       36255.520        1546.175         628.854
       37269.908        1480.434         408.592
       37034.672        1833.951         501.243
       39029.273        1753.676         385.098
       38077.655        4792.209         558.197
       39254.675        2711.717         452.989
       41586.123        2121.143         510.593
       41963.769        2246.337         526.531
       42106.407        2052.676         496.241
       42007.747        1857.016         433.418
       41672.617        1834.969         434.525
       44557.244        1646.157         405.698
       48677.859        2778.442         645.596
       50250.711        2093.828         424.785
       49386.293        1767.118         506.051
       54589.768        1534.714         524.327
       52255.864        2086.888         441.642
       52313.711        1504.868         386.978
       56887.872        2939.913         572.120
       56766.069        1564.629         491.125
       54159.627        2424.313         580.126
       60254.702        1530.284         405.588
       58018.795        3423.187         476.999
       61372.876        2407.253         660.028
       60245.984        1843.528         476.242
       60986.295        1551.047         520.012
       62726.946        2611.068         629.810
       63268.002        1656.199         471.718
       63881.329        2003.657         411.784
       68171.896        1942.915         445.511
       68094.667        1439.243         441.130
       70011.859        2335.210         542.980
       70758.937        1823.325         479.095
       70855.257        2167.289         534.634
       70164.281        1967.428         414.993
       73971.179        1555.104         501.717
       73815.194        3736.106         612.280
       73712.143        2220.479         542.795
       76948.759        1673.838         644.839
       79212.037        1673.954         457.440
       78679.927        2405.216         520.747
         662.544        3786.639         505.147
        4078.523        3981.876         792.864
        3630.389        3232.841         618.048
        3034.086        3373.912         591.395
        5659.645        4205.805         571.925
        5441.323        3288.181         365.125
        9015.166        5583.215         718.374
       10687.722        4069.289         666.605
       10008.386        3320.874         545.068
        8855.600        3727.252         588.869
       10613.967        2586.374         411.673
       12147.900        2840.245         538.514
       16805.890        3339.645         526.970
       11890.908        4187.332         566.502
       17685.238        4047.785         457.466
       16302.923        3806.030         586.694
       17876.457        3116.698         439.764
       22455.746        4427.270         646.018
       21858.427        3631.145         563.431
       23526.444        3325.581         642.470
       21621.289        3378.709         532.541
       23935.944        3431.465         501.867
       26900.804        3062.486         463.476
       28569.041        4335.387         721.544
       28218.188        3036.686         659.737
       27209.669        3650.416         559.063
       30844.586        3326.838         506.163
       30058.673        4313.427         614.043
       28714.117        4432.593         665.187
       34029.414        2518.121         366.334
       32075.597        2311.461         418.884
       35505.470        2665.453         514.294
       35306.007        2232.448         543.541
       41386.773        4411.886         470.553
       41491.059        3760.989         452.898
       38244.886        4928.069         541.369
       43065.130        4424.840         459.787
       45162.753        2949.416         480.907
       44516.794        2329.966         445.275
       46457.037        4479.734         538.561
       47788.708        3104.029         531.990
       44958.315        4856.103         586.028
       47180.303        2224.448         487.540
       47871.644        3282.199         507.041
       48508.279        3140.931         532.149
       48161.531        3829.707         647.319
       48472.645        4270.621         549.079
       52607.033        2974.249         446.739
       55485.746        3349.687         666.766
       52540.741        3619.173         542.527
       56293.383        3528.832         585.061
       54848.466        4238.994         802.691
       56133.256        4013.836         696.494
       61653.729        3166.669         525.110
       62237.023        3526.522         493.420
       62506.475        3107.257         492.139
       61593.296        3506.094         588.796
       65522.616        4153.099         510.934
       65880.449        3137.515         502.638
       67085.711        3672.611         695.000
       67415.021        3445.145         544.638
       67458.250        3438.530         543.283
       67490.004        4043.248         762.695
[...]
POINT_DATA       8666
SCALARS height float 1
LOOKUP_TABLE default
   367.9
   368.1
   358.2
   412.9
   351.4
   369.4
   249.2
   385.8
   410.1
   342.0
   354.5
   411.9
   431.2
   297.8
   388.1
   365.7
   371.3
   355.6
   358.6
   414.1
   299.5
   395.4
   344.4
   260.2
   431.5
   386.6
   256.9
   346.3
   403.7
   359.1
   406.2
   341.4
   326.2
   403.1
   347.5
   392.0
   390.5
   356.0
   330.2
   388.4
   341.2
   317.0
   399.7
   376.2
   414.6
   238.6
   377.3
   356.5
   259.5
   403.1
   409.4
   261.0
   310.5
   398.5
   366.8
   254.3
   348.8
   405.6
   441.4
   381.9
   605.7
   497.6
   540.0
   541.7
   560.5
   553.9
   615.5
   427.7
   564.0
   514.9
   524.4
   437.3
   588.3
   462.0
   493.3
   514.5
   386.6
   510.0
   431.1
   535.0
   573.0
   430.0
   564.8
   574.6
   450.5
   502.8
   479.6
   561.3
   442.6
   430.9
   545.3
   618.0
   608.9
   416.1
   472.8
   535.6
   547.3
   404.8
   628.9
   408.6
   501.2
   385.1
   558.2
   453.0
   510.6
   526.5
   496.2
   433.4
   434.5
   405.7
   645.6
   424.8
   506.1
   524.3
   441.6
   387.0
   572.1
   491.1
   580.1
   405.6
   477.0
   660.0
   476.2
   520.0
   629.8
   471.7
   411.8
   445.5
   441.1
   543.0
   479.1
   534.6
   415.0
   501.7
   612.3
   542.8
   644.8
   457.4
   520.7
   505.1
   792.9
   618.0
   591.4
   571.9
   365.1
   718.4
   666.6
   545.1
   588.9
   411.7
   538.5
   527.0
   566.5
   457.5
   586.7
   439.8
   646.0
   563.4
   642.5
   532.5
   501.9
   463.5
   721.5
   659.7
   559.1
   506.2
   614.0
   665.2
   366.3
   418.9
   514.3
   543.5
   470.6
   452.9
   541.4
   459.8
   480.9
   445.3
   538.6
   532.0
   586.0
   487.5
   507.0
   532.1
   647.3
   549.1
   446.7
   666.8
   542.5
   585.1
   802.7
   696.5
   525.1
   493.4
   492.1
   588.8
   510.9
   502.6
   695.0
   544.6
   543.3
   762.7
   613.6
   544.0
   587.4
   548.0
   736.1
   676.0
   626.8
   657.1
   685.0
   576.3
   422.0
   436.3
   623.8
   432.2
   220.3
   569.2
   468.0
   645.6
   599.2
   737.3
   812.9
   663.3
   592.1
   582.6
   767.1
   702.8
   510.5
   418.0
   549.5
   483.4
   526.3
   573.1
   710.0
   736.5
   679.1
   645.6
   552.9
   655.1
   673.6
   914.1
   509.6
   480.8
   493.4
   727.2
   631.0
   606.9
   611.6
   673.8
   655.0
   599.6
   592.1
   737.7
   715.7
   545.4
   693.3
   578.5
   469.5
   485.9
   670.3
   570.1
   780.8
   598.8
   578.3
   658.4
   613.4
   729.6
   515.6
   588.7
   496.7
   864.1
   757.1
   757.7
   767.8
   603.5
   703.7
   812.2
   467.2
   536.6
   518.9
   544.9
   689.3
   627.3
   702.1
   664.1
   624.9
   566.9
   718.3
   776.5
   856.1
   861.3
   486.8
   521.1
   445.8
   615.0
   793.0
   837.9
   652.1
   673.3
   618.8
   668.7
   756.3
   559.7
   646.6
   693.6
   618.0
   572.1
   594.0
   433.2
   532.3
   573.7
   748.5
   663.5
   799.6
   620.7
   634.1
   673.1
   884.1
   792.0
   738.9
   835.4
   730.7
   822.2
   911.2
   371.9
   477.9
   692.1
   611.8
   733.2
   556.3
   759.2
   709.3
   749.0
   603.3
   645.0
   720.5
   830.9
   632.5
   595.8
   635.3
   886.0
   853.6
   738.5
   751.2
   718.6
   694.2
   487.5
   577.7
  1064.8
   879.5
   807.4
   509.7
   469.2
   553.4
   547.5
   632.5
   628.7
   660.3
   839.0
   733.4
   846.7
   737.1
   696.9
   834.7
   697.6
   867.6
   773.2
   860.7
   824.0
   634.4
   844.0
   773.1
   848.1
   713.1
   745.4
   846.5
   805.3
   424.8
   579.4
   553.8
   436.0
   471.8
   428.7
   559.3
   534.9
   819.0
   642.8
   898.8
   896.6
   806.8
   788.9
   700.3
   844.6
   835.5
   934.1
   682.0
   944.5
   924.7
   798.0
   791.6
   645.2
   701.7
   839.1
   797.2
   710.7
   769.5
   590.2
   876.7
   589.9
   801.3
   645.5
   842.6
   967.7
   884.4
   965.1
   939.0
   628.4
   814.8
   460.4
   514.2
   780.1
   596.2
   799.0
   688.2
   623.7
   672.6
   718.7
   958.4
   948.4
   591.8
   678.6
   898.4
   944.0
   987.4
   991.5
   758.8
   911.2
   767.1
   702.4
   906.7
   931.7
   785.0
   656.6
   841.7
   578.1
   564.8
   893.9
   786.3
   877.7
   633.7
   690.7
   674.1
  1138.5
   851.0
  1101.3
  1053.1
  1013.2
  1135.4
   955.6
  1047.5
  1124.6
  1071.5
  1008.8
   913.8
   993.5
   702.5
   851.4
   752.1
   827.1
   592.4
   508.6
   555.0
   520.6
   439.1
   390.0
   383.3
   489.3
   485.3
   427.0
   456.2
   596.3
   558.9
   973.3
   794.6
  1026.4
   872.5
   809.7
  1115.9
   922.9
  1099.1
  1003.4
  1026.6
  1058.5
   779.4
   779.2
   939.5
   922.5
  1179.0
  1165.0
  1025.5
  1218.3
  1256.1
   901.6
   995.8
   965.9
  1225.6
  1129.1
   989.5
   956.8
   891.1
   705.5
   757.9
   860.3
  1009.2
   992.5
   719.9
   918.4
  1136.1
  1175.0
   812.3
   837.1
   729.2
  1124.4
  1173.6
  1270.8
  1132.1
   834.9
   771.9
  1150.8
  1149.5
  1094.2
  1115.0
   968.0
  1067.6
  1140.8
  1272.1
   717.9
   523.7
  1048.5
   931.9
  1106.8
  1047.3
   842.7
   821.7
  1000.4
   848.8
  1188.1
  1186.1
  1180.8
  1144.9
  1249.3
  1307.7
  1053.3
  1016.8
   982.2
  1251.8
   703.4
   719.3
   790.4
   658.5
   550.9
   535.0
   566.0
   560.3
   518.3
   725.4
   706.5
   586.5
   670.0
   801.3
   788.4
   765.0
   807.8
   816.2
  1176.1
  1241.8
  1091.2
   996.4
  1117.1
  1270.7
  1028.7
  1279.6
  1311.7
  1328.6
  1318.2
  1091.4
  1067.0
  1195.1
  1328.9
  1336.8
  1318.8
  1234.2
  1324.7
  1191.6
  1099.8
   732.7
   671.2
  1370.0
  1211.7
  1127.7
  1156.1
  1146.4
   998.8
   982.4
   914.3
  1047.4
   888.3
  1222.0
  1175.8
   979.8
  1039.0
  1181.8
  1134.6
   880.0
  1128.9
  1164.5
  1047.0
  1394.4
  1338.8
  1364.5
   951.0
  1102.6
  1259.4
  1399.6
  1312.4
   969.9
  1135.8
  1140.0
   986.0
   711.5
   957.4
   662.1
   908.7
  1075.9
  1127.4
   913.1
  1181.1
  1139.2
  1409.5
  1171.3
  1188.3
  1242.4
   955.1
  1019.3
   792.2
   950.3
   886.3
   677.0
   856.5
   667.2
   636.7
   490.8
   429.5
   521.0
   268.8
   533.4
   652.1
   780.4
   919.1
   623.4
   779.5
   818.3
   961.1
   802.6
  1009.6
  1083.4
   982.3
  1083.4
  1206.1
  1112.1
  1418.0
  1397.9
  1406.6
  1127.3
  1422.8
  1416.0
  1334.7
  1375.4
  1198.4
  1429.4
  1422.7
  1417.4
  1388.8
  1376.7
  1379.6
  1071.3
   932.2
  1123.6
   961.4
   864.3
   967.7
   934.4
  1139.2
  1309.7
  1219.6
  1386.3
  1397.9
  1345.7
  1139.9
  1336.4
  1341.0
  1347.1
  1374.9
  1378.2
  1392.2
  1428.4
  1262.3
  1420.7
  1421.6
  1266.1
  1081.9
  1378.7
  1365.7
  1167.8
  1351.7
  1356.4
  1327.5
  1365.9
  1317.8
  1354.3
  1343.9
  1371.1
  1422.7
  1312.6
   975.8
  1008.8
   854.8
  1261.0
  1102.0
  1248.4
  1390.3
  1381.8
  1377.9
  1195.5
  1192.6
  1382.3
  1455.8
   989.9
   970.6
   960.6
   788.7
   522.7
   548.4
   532.9
   495.3
   396.3
   352.3
   357.0
   474.3
   472.1
   562.2
   512.2
   422.0
   400.1
   662.5
   524.9
   487.8
   698.4
   816.0
   562.0
   640.8
   726.8
   976.0
  1076.4
   868.5
  1325.1
  1451.2
  1454.8
  1422.8
  1422.7
  1513.4
  1422.7
  1422.7
  1569.2
  1430.8
  1569.2
  1569.2
  1414.7
  1355.7
  1330.3
  1415.9
  1236.2
  1327.9
  1328.6
  1330.7
  1234.5
  1566.9
  1422.8
  1491.2
  1545.7
  1422.8
  1422.8
  1422.8
  1475.2
  1422.8
  1509.2
  1481.2
  1422.8
  1483.7
  1475.1
  1558.5
  1558.7
  1519.6
  1377.5
  1324.3
  1184.3
  1295.5
  1383.2
  1357.4
  1383.2
  1538.7
  1502.9
  1482.5
  1494.8
  1504.2
  1357.9
  1368.0
  1379.1
   994.1
   691.6
   959.2
   899.1
   651.4
   725.4
   748.7
   706.7
   730.9
   567.7
   642.4
   616.6
   447.1
   412.1
   445.4
   475.5
   554.6
   607.7
   920.1
  1083.2
  1495.5
  1422.8
  1422.7
  1422.7
  1422.7
  1422.7
  1569.2
  1569.2
  1569.2
  1567.0
  1430.8
  1569.1
  1422.9
  1567.0
  1452.8
  1422.9
  1422.9
  1422.9
  1464.7
  1460.9
  1453.1
  1501.4
  1499.8
  1471.5
  1422.8
  1422.8
  1436.0
  1424.2
  1422.8
  1422.7
  1422.8
  1422.8
  1422.8
  1569.1
  1569.1
  1422.8
  1545.0
  1561.5
  1475.1
  1487.8
  1489.3
  1303.0
  1422.8
  1460.9
  1475.7
  1422.8
  1422.8
  1479.3
  1440.5
  1509.4
  1420.6
  1362.7
  1350.1
  1195.4
  1194.2
  1131.4
  1142.4
   937.6
   969.6
   782.6
   788.9
   785.1
   566.3
   646.4
   496.2
   435.3
   639.9
   539.0
   464.8
   367.1
   412.4
   428.9
   574.0
   659.3
   623.3
   560.0
   848.7
   595.8
   829.9
   629.7
   551.9
  1055.7
   842.7
   942.2
   960.1
   836.1
  1221.6
  1061.1
  1221.5
  1286.2
  1330.4
  1514.4
  1516.8
  1422.8
  1569.2
  1569.1
  1569.2
  1567.0
  1569.1
  1567.2
  1567.2
  1535.4
  1555.2
  1555.7
  1556.2
  1422.8
  1565.2
  1565.2
  1565.3
  1422.8
  1422.7
  1422.8
  1569.1
  1429.2
  1569.1
  1422.7
  1475.1
  1569.0
  1569.0
  1569.0
  1422.8
  1569.0
  1569.1
  1569.0
  1569.1
  1569.1
  1316.6
  1422.8
  1422.8
  1422.8
  1422.9
  1419.6
  1441.4
   994.1
   956.3
   820.6
   929.1
   709.5
  1011.1
   525.2
   722.5
   508.6
   730.7
   573.2
   446.0
   534.0
   455.3
   618.2
   524.5
   550.9
   449.0
   496.5
   555.5
   805.5
   578.0
   797.5
   979.7
   705.4
  1243.9
  1274.4
  1056.8
  1063.9
  1302.8
  1550.3
  1545.8
  1454.5
  1569.1
  1557.0
  1569.2
  1567.0
  1569.1
  1569.2
  1567.0
  1567.0
  1567.0
  1569.1
  1569.1
  1569.1
  1569.1
  1569.0
  1569.1
  1569.0
  1422.8
  1422.8
  1422.8
  1422.8
  1424.2
  1422.9
  1569.0
  1436.0
  1569.0
  1422.6
  1422.7
  1422.7
  1422.7
  1422.6
  1422.8
  1569.0
  1422.8
  1422.8
  1481.3
  1569.0
  1569.0
  1481.3
  1569.1
  1569.1
  1422.7
  1494.7
  1453.8
  1453.9
  1449.2
  1452.2
  1207.4
  1221.8
  1196.6
  1256.1
   693.8
   525.5
   549.8
   722.3
   639.3
   641.0
   450.4
   456.0
   609.1
   402.5
   476.3
   433.1
   521.2
   869.3
   869.3
  1059.1
   966.8
  1425.5
  1422.8
  1569.1
  1434.9
  1569.2
  1556.3
  1422.9
  1569.1
  1422.9
  1422.9
  1493.6
  1569.0
  1468.7
  1422.8
  1569.1
  1422.8
  1422.8
  1569.1
  1569.0
  1569.1
  1569.1
  1491.3
  1422.9
  1436.0
  1422.6
  1422.6
  1422.8
  1422.8
  1422.6
  1422.9
  1569.0
  1569.0
  1422.9
  1481.3
  1422.7
  1481.3
  1422.7
  1422.7
  1422.7
  1569.2
  1569.1
  1568.9
  1569.2
  1453.9
  1480.5
  1453.9
   877.6
  1056.2
  1027.4
   830.6
   776.4
   713.6
   958.5
   772.5
   815.6
   800.4
   695.4
   649.0
   722.9
   613.5
   685.6
   521.7
   474.0
   591.0
   465.1
   305.4
   468.9
   569.7
   603.6
   398.7
   455.7
   556.0
   617.6
   464.5
   595.0
   611.6
   628.9
   814.4
   780.4
   780.5
   900.5
  1016.2
   996.9
  1391.8
  1437.8
  1442.2
  1422.8
  1294.5
  1422.8
  1306.2
  1511.2
  1569.1
  1569.1
  1428.5
  1569.1
  1569.1
  1569.1
  1569.0
  1569.0
  1569.2
  1468.7
  1569.1
  1569.1
  1569.2
  1510.3
  1569.2
  1422.8
  1422.7
  1422.6
  1422.6
  1422.6
  1422.6
  1422.6
  1422.6
  1422.6
  1569.1
  1422.9
  1569.1
  1422.9
  1422.6
  1568.9
  1422.9
  1568.9
  1568.9
  1568.9
  1422.8
  1453.9
  1422.8
  1568.9
  1321.8
  1546.2
  1475.9
  1453.9
  1278.2
  1229.4
  1282.4
  1298.5
  1173.4
  1169.9
  1158.9
   986.6
  1125.2
   958.2
   861.0
   826.4
   748.9
   883.6
   722.7
   687.8
   454.6
   542.7
   421.7
   539.4
   540.6
   455.8
   456.4
   655.2
   565.9
   772.5
   814.7
   836.9
  1052.1
  1034.0
  1142.2
  1076.2
   941.9
  1219.4
  1110.7
  1391.1
  1274.6
  1461.5
  1423.0
  1446.1
  1434.9
  1425.5
  1506.0
  1423.0
  1569.1
  1568.9
  1569.1
  1511.2
  1423.1
  1569.1
  1569.1
  1569.1
  1423.1
  1569.0
  1468.7
  1569.1
  1422.8
  1569.1
  1569.2
  1510.3
  1458.8
  1510.3
  1510.3
  1569.2
  1569.0
  1422.9
  1422.7
  1422.7
  1422.7
  1569.1
  1569.1
  1422.9
  1569.1
  1569.1
  1422.9
  1422.9
  1422.9
  1569.1
  1569.1
  1422.7
  1438.4
  1568.9
  1422.6
  1568.9
  1422.9
  1568.9
  1453.9
  1422.6
  1422.8
  1453.9
  1303.5
  1001.8
  1219.5
   936.7
   912.0
   765.1
   910.2
   602.2
   686.4
   739.3
   496.4
   483.7
   596.7
   427.0
   605.8
   438.9
   465.9
   436.0
   677.9
   663.3
   648.7
   807.6
   789.0
   858.4
  1101.3
  1037.4
  1222.7
  1423.0
  1445.6
  1423.0
  1423.0
  1422.8
  1511.2
  1568.9
  1422.8
  1569.3
  1569.0
  1423.1
  1422.9
  1422.8
  1497.0
  1569.1
  1458.8
  1458.8
  1453.6
  1569.2
  1569.2
  1569.1
  1422.9
  1569.0
  1569.1
  1569.0
  1569.1
  1569.1
  1556.9
  1569.0
  1569.1
  1569.0
  1569.0
  1487.1
  1568.9
  1422.6
  1487.1
  1422.6
  1422.6
  1568.9
  1435.8
  1422.9
  1422.8
  1453.9
  1453.9
  1311.4
  1453.9
  1422.8
  1288.9
  1240.2
  1287.4
   696.4
   522.0
   507.8
   564.7
   354.3
   540.9
   436.3
   496.6
   509.8
   611.9
   553.6
   598.1
   815.8
   550.7
   794.1
   993.4
   887.6
  1020.2
   911.9
  1073.7
  1359.9
  1521.2
  1422.8
  1422.8
  1422.7
  1568.9
  1523.6
  1569.0
  1569.2
  1422.7
  1569.1
  1569.1
  1453.6
  1422.9
  1453.6
  1453.6
  1569.1
  1569.1
  1569.2
  1422.9
  1569.2
  1422.8
  1569.1
  1422.7
  1569.1
  1569.1
  1422.7
  1569.1
  1422.7
  1569.1
  1422.6
  1422.8
  1487.1
  1487.1
  1438.4
  1568.8
  1438.4
  1422.6
  1435.7
  1569.1
  1525.5
  1422.6
  1393.9
  1473.9
  1105.6
   999.4
  1258.2
  1056.9
  1023.6
   854.6
   761.2
   935.7
   772.5
   672.2
   765.9
   696.8
   721.9
   688.9
   534.2
   478.9
   598.5
   709.1
   436.8
   622.0
   638.9
   578.9
   655.5
   487.4
   482.6
   589.2
   596.9
   603.5
   773.0
   705.8
  1201.1
  1515.0
  1422.7
  1422.7
  1422.7
  1569.0
  1422.9
  1422.9
  1569.1
  1569.0
  1569.1
  1569.1
  1569.1
  1423.0
  1423.0
  1423.0
  1569.1
  1569.1
  1422.9
  1422.9
  1422.9
  1422.9
  1422.8
  1422.8
  1422.7
  1422.7
  1422.7
  1422.7
  1422.6
  1569.1
  1569.0
  1569.1
  1422.6
  1422.6
  1422.6
  1422.6
  1568.9
  1435.7
  1422.6
  1422.6
  1422.6
  1358.1
  1402.8
  1525.5
  1184.5
  1328.6
   834.6
  1079.7
  1049.3
   796.5
   780.6
   640.1
   773.0
   673.6
   612.1
   825.0
   451.6
   430.6
   510.4
   377.2
   550.2
   496.8
   415.3
   575.8
   444.6
   457.5
   465.4
   399.6
   502.5
   701.3
   562.5
   565.6
   654.3
   843.9
   885.9
   655.9
   843.0
   745.7
   915.1
   960.1
   959.5
  1293.3
  1175.6
  1283.4
  1009.3
  1516.4
  1564.5
  1422.7
  1564.5
  1428.4
  1422.8
  1569.1
  1422.7
  1569.1
  1569.1
  1422.8
  1569.1
  1569.1
  1569.1
  1569.1
  1569.1
  1569.1
  1423.0
  1569.3
  1569.1
  1569.2
  1569.1
  1423.0
  1556.3
  1569.0
  1569.0
  1569.0
  1422.8
  1569.1
  1569.0
  1569.2
  1569.1
  1569.2
  1569.1
  1422.6
  1422.6
  1422.6
  1422.6
  1569.1
  1569.1
  1568.9
  1569.1
  1568.9
  1569.0
  1568.9
  1568.9
  1569.1
  1422.8
  1356.6
  1323.4
  1229.7
  1188.2
  1347.1
   827.8
   850.2
   567.9
   563.5
   665.6
   682.3
   488.1
   604.2
   524.8
   614.7
   570.0
   483.2
   382.9
   535.5
   516.4
   622.8
   960.1
   787.1
   971.9
  1422.9
  1281.2
  1421.5
  1422.7
  1422.7
  1422.7
  1422.7
  1422.8
  1422.8
  1569.1
  1422.8
  1422.8
  1569.1
  1569.1
  1569.1
  1569.1
  1569.2
  1547.1
  1569.3
  1422.9
  1423.0
  1423.0
  1569.1
  1422.8
  1422.8
  1422.8
  1562.1
  1569.0
  1569.0
  1422.9
  1569.1
  1569.1
  1422.8
  1569.1
  1422.8
  1569.1
  1569.1
  1569.1
  1568.0
  1545.1
  1569.1
  1231.6
  1073.9
  1225.7
  1118.7
   843.6
   836.8
   708.5
   475.3
   420.6
   646.3
   445.6
   548.7
   471.7
   318.7
   499.1
   444.1
   396.7
   556.7
   594.0
   646.5
   668.6
   478.8
   933.9
   892.7
   873.4
   749.7
   756.1
   966.4
   971.2
   990.9
  1303.6
  1259.7
  1205.9
  1422.9
  1466.5
  1569.1
  1569.1
  1569.1
  1422.9
  1422.7
  1422.8
  1422.7
  1569.0
  1422.7
  1422.8
  1423.0
  1569.1
  1568.9
  1422.8
  1423.0
  1422.8
  1422.8
  1569.1
  1569.1
  1569.1
  1422.9
  1569.2
  1569.2
  1562.1
  1562.1
  1569.2
  1569.2
  1563.6
  1569.1
  1569.1
  1569.1
  1569.1
  1569.1
  1569.1
  1569.1
  1569.1
  1569.1
  1569.1
  1569.1
  1569.1
  1569.1
  1498.4
  1568.1
  1569.1
  1327.3
  1422.8
  1520.5
  1568.1
  1411.8
  1398.5
  1387.9
  1285.8
  1307.6
   685.4
   753.1
   960.6
   880.1
   791.7
   452.8
   513.2
   546.3
   416.8
   576.2
   488.0
   586.1
   569.3
   577.6
   643.2
   747.1
   601.8
   679.4
   790.9
   883.4
   730.9
   932.7
   896.3
  1156.5
   949.9
  1236.1
  1333.7
  1324.6
  1142.6
  1466.5
  1430.1
  1422.9
  1569.1
  1422.7
  1422.7
  1422.7
  1423.0
  1569.0
  1423.0
  1423.0
  1422.8
  1569.1
  1569.2
  1552.8
  1569.2
  1569.2
  1569.2
  1569.2
  1569.2
  1569.2
  1569.1
  1569.1
  1561.3
  1511.1
  1569.1
  1569.1
  1569.1
  1422.9
  1569.1
  1569.1
  1569.1
  1569.1
  1422.8
  1482.5
  1422.8
  1093.1
  1082.3
   887.2
   888.6
   611.8
   601.9
   549.3
   693.9
   465.7
   647.9
   700.1
   484.7
   507.6
   568.0
   506.3
   418.4
   427.2
   632.8
   466.1
   536.5
   449.4
   414.9
   491.3
   627.7
   508.1
   571.8
   572.2
   857.8
   831.9
   626.4
  1233.0
  1117.2
  1152.4
   986.8
  1248.4
  1426.2
  1433.4
  1422.7
  1458.7
  1569.0
  1569.1
  1569.1
  1569.0
  1422.7
  1422.8
  1568.9
  1509.4
  1422.7
  1422.7
  1422.7
  1422.7
  1569.3
  1569.3
  1569.3
  1422.8
  1422.8
  1422.8
  1422.8
  1422.8
  1569.2
  1569.2
  1569.2
  1498.3
  1422.7
  1569.2
  1569.1
  1569.1
  1569.1
  1498.3
  1569.1
  1422.8
  1422.8
  1569.1
  1511.1
  1511.1
  1511.1
  1569.2
  1422.9
  1422.9
  1422.8
  1422.8
  1422.8
  1303.3
  1454.8
  1469.2
  1188.5
  1123.7
   919.2
  1152.1
  1154.4
   989.7
   969.8
   938.2
   718.2
   664.3
   839.0
   917.5
   926.4
   739.2
   824.4
   551.3
   499.9
   406.3
   461.0
   491.4
   437.3
   432.4
   618.9
   605.0
   990.5
   829.4
  1447.4
  1330.3
  1422.7
  1422.7
  1422.7
  1422.7
  1422.7
  1422.8
  1422.8
  1509.4
  1509.4
  1569.3
  1423.0
  1569.1
  1569.2
  1569.1
  1423.0
  1569.1
  1569.2
  1569.1
  1569.1
  1569.2
  1569.2
  1569.2
  1422.7
  1422.7
  1422.7
  1422.8
  1422.8
  1422.8
  1422.8
  1569.0
  1557.3
  1422.9
  1422.9
  1422.9
  1422.8
  1422.8
  1422.8
  1422.8
  1569.2
  1569.2
  1562.7
  1569.2
  1550.8
  1569.2
  1569.2
  1569.1
  1569.1
  1396.2
  1482.0
  1569.1
  1460.3
  1399.6
  1304.1
  1121.7
  1216.4
   976.4
  1071.4
   869.5
   924.5
   851.9
   631.3
   691.1
   698.6
   494.7
   516.8
   560.1
   440.9
   501.2
   758.9
   521.8
   767.0
   640.7
   563.1
   678.3
   661.7
   744.0
   791.8
   748.0
   870.5
   931.0
   741.2
   886.4
  1084.0
  1064.5
  1092.7
  1467.5
  1525.3
  1285.0
  1522.2
  1566.6
  1563.2
  1566.7
  1569.1
  1422.8
  1564.0
  1569.2
  1569.1
  1569.2
  1422.9
  1569.2
  1569.3
  1423.0
  1569.2
  1423.0
  1569.1
  1569.2
  1569.2
  1569.2
  1569.2
  1422.9
  1422.9
  1498.3
  1569.2
  1569.0
  1569.0
  1495.9
  1569.1
  1422.7
  1569.0
  1568.9
  1569.2
  1569.2
  1422.7
  1422.9
  1562.7
  1569.2
  1569.2
  1315.9
  1406.3
  1562.7
  1569.1
  1274.3
   924.7
   977.8
  1157.4
  1133.2
   756.7
   818.7
   701.2
   826.3
   849.2
   725.8
   685.8
   706.9
   428.5
   371.8
   475.9
   480.6
   727.2
   697.2
   555.3
   669.9
   528.6
   732.6
   542.0
   731.5
   772.6
   671.1
   650.5
   598.5
  1020.2
   960.0
  1062.4
   876.9
  1049.1
  1330.9
  1358.1
  1287.6
  1469.9
  1538.8
  1422.8
  1563.6
  1422.8
  1422.8
  1569.1
  1569.1
  1569.2
  1569.3
  1569.3
  1569.3
  1569.3
  1569.0
  1569.1
  1464.9
  1569.1
  1569.2
  1569.2
  1569.2
  1569.0
  1498.3
  1569.1
  1569.0
  1569.0
  1422.8
  1569.1
  1569.0
  1422.7
  1422.7
  1422.7
  1422.8
  1568.9
  1569.0
  1422.7
  1422.7
  1422.8
  1569.2
  1562.7
  1569.2
  1569.2
  1422.9
  1312.1
  1305.9
  1283.4
  1306.2
   999.1
   694.6
   708.2
   637.4
   561.7
   564.4
   563.8
   652.0
   696.4
   548.8
   543.9
   570.5
   510.3
   552.0
   300.9
   407.9
   500.1
   394.7
   508.4
   501.8
   448.6
   427.1
   561.2
   732.7
  1219.2
  1151.8
  1328.6
  1110.3
  1240.5
  1447.0
  1512.3
  1302.3
  1549.8
  1422.8
  1549.6
  1568.3
  1422.8
  1569.1
  1569.1
  1533.6
  1568.8
  1569.3
  1569.3
  1569.3
  1569.2
  1569.2
  1569.2
  1569.2
  1569.1
  1569.2
  1569.1
  1422.9
  1422.9
  1544.6
  1569.2
  1569.0
  1569.2
  1569.0
  1569.1
  1569.1
  1569.1
  1569.1
  1422.8
  1569.1
  1422.8
  1422.9
  1422.8
  1422.8
  1422.8
  1533.2