# vtk DataFile Version 3.0
divides
ASCII
DATASET UNSTRUCTURED_GRID
POINTS       9874 float
        1770.262        1417.572         372.760
        5679.698        1066.036         367.226
        4486.716        1345.036         367.052
        7850.244        1255.584         414.609
        8181.941        1244.621         353.349
       11194.459        1423.873         371.305
       10795.658         511.453         250.295
       13877.498        1154.870         386.121
       11609.212        1466.261         411.876
       14484.275        1157.787         341.910
       17206.967        1892.713         436.914
       18371.682         992.783         353.400
       20754.645        1649.444         439.260
       21408.576         645.686         303.095
       20893.614        1700.701         397.622
       25030.148         908.826         366.506
       23767.269        1553.138         385.851
       26307.246         907.239         356.319
       27450.566        1307.497         362.857
       29873.037        1368.060         401.578
       31097.237         725.498         342.488
       34329.842        1393.831         388.061
       33472.323        1115.103         338.335
       33118.069         464.227         256.887
       36739.206        1146.438         417.382
       34700.174        1390.430         378.834
       38844.927         516.084         261.589
       38265.621        1214.546         351.215
       37349.430        1142.957         386.654
       42683.338        1112.343         387.130
       40775.396         919.006         353.078
       43330.524        1114.742         339.102
       45888.822         898.681         326.965
       47672.499        1207.283         405.898
       50432.491         789.773         343.167
       48509.016        1197.311         394.917
       49888.043        1406.667         376.786
       51881.950         788.368         351.676
       52906.600        1062.682         332.719
       55463.334        1150.198         390.404
       55863.575        1137.318         343.419
       59089.081         931.184         313.582
       61938.599        1234.302         403.502
       60493.126        1412.874         380.448
       63495.700        1310.980         406.408
       64348.298         516.221         239.067
       63829.482        1310.844         367.342
       67272.630        1271.077         362.299
       66779.088         547.984         265.267
       67700.332        1299.558         407.178
       70383.215        1760.797         412.682
       69909.022         469.364         260.759
       72134.836         899.769         309.627
       74668.259        1178.903         397.493
       72702.520         940.261         365.871
       75643.622         489.571         253.630
       75107.036        1154.879         347.883
       76246.890        1561.364         404.408
       78353.449        1410.935         441.675
       78643.840        1417.278         382.690
       79470.678         699.317         616.311
         888.733        1715.272         518.663
        1625.087        3046.316         553.783
        3422.622        2538.361         600.821
         751.094        2637.311         565.227
        3461.557        1663.315         593.201
        4695.928        2183.828         541.187
        4833.046        1599.729         435.017
        7721.322        2793.426         570.948
        9083.067        1908.683         523.645
        7477.924        2163.405         529.127
        7667.793        1628.833         438.002
        9130.428        2976.551         601.228
        8844.826        1394.953         467.320
       12389.721        1936.777         498.673
       12563.523        2325.462         520.872
       10606.663        2153.467         392.466
       16983.338        1914.548         517.059
       17254.168        1917.031         436.039
       16934.007        2022.041         542.670
       17297.064        2262.113         558.829
       20693.317        1797.445         437.409
       20822.612        2320.538         559.328
       21349.702        2228.550         596.267
       21168.004        1726.804         465.562
       20604.116        2050.856         506.321
       24190.216        2055.914         495.810
       23857.013        2975.713         627.289
       22880.615        2329.399         606.470
       23300.229        1686.371         463.246
       24127.699        1736.588         446.458
       27315.874        2516.521         552.873
       29098.624        2316.514         633.334
       28950.600        1609.060         609.047
       27053.748        1579.963         421.509
       30504.270        1738.453         456.889
       30585.347        1164.425         545.504
       30219.213        2245.514         531.461
       32062.538        1996.936         395.230
       35988.546        1587.723         575.163
       37464.913        1555.533         395.276
       36995.800        2085.116         505.281
       38921.757        1764.483         385.004
       38074.498        4870.562         584.714
       39070.120        2559.191         446.787
       41895.456        1763.817         441.085
       44587.858        1640.210         404.987
       42873.655        3103.678         423.350
       48428.211        2960.694         614.996
       50317.833        2157.709         391.999
       49176.616        1744.203         497.622
       54585.168        1534.725         537.003
       52344.030        2017.655         432.313
       52348.528        1506.691         381.964
       56759.282        2770.962         569.289
       56691.065        1562.047         490.217
       54130.108        2440.214         597.690
       60309.429        1525.408         404.548
       58050.949        3365.069         465.940
       61550.882        2584.323         709.979
       60285.110        1785.909         469.520
       60993.437        1551.603         542.779
       62513.149        2804.035         624.751
       63154.336        1656.125         475.527
       63902.010        2077.805         401.414
       67437.002        3416.028         561.192
       68082.867        1925.360         457.187
       68004.375        1477.022         450.869
       70041.147        2302.346         547.929
       70716.053        1834.339         483.950
       70816.708        2147.177         539.791
       70204.798        1958.629         420.930
       73967.646        1554.890         502.471
       73833.454        3705.324         615.801
       73715.964        2218.793         544.668
       77017.433        1675.744         653.609
       79209.984        1674.147         461.963
       78679.954        2404.091         525.644
         662.309        3786.431         505.483
        5723.213        4321.178         536.341
        5510.945        3285.204         334.775
        3331.312        3854.485         601.729
        9079.267        5316.361         721.485
       10726.344        4086.121         684.481
       10026.138        3312.726         558.788
        8861.452        3725.676         592.764
       10622.158        2591.074         420.081
       12081.693        2840.232         545.960
       16642.369        3302.551         519.606
       11855.936        4204.672         572.967
       17695.011        4090.550         440.269
       15891.269        3902.340         597.211
       17919.905        3062.064         432.527
       22379.711        4151.134         640.749
       21880.362        3531.505         552.934
       23401.200        3287.380         650.280
       21655.332        3335.797         521.265
       26835.742        3052.550         459.686
       28471.892        4248.714         699.692
       28523.741        3015.752         669.003
       27211.696        3713.299         554.160
       30765.540        3253.022         482.109
       30188.389        3730.370         572.262
       28880.933        4277.602         680.864
       33865.462        4792.439         468.112
       34022.881        2520.875         344.334
       32025.505        2287.662         406.095
       37946.380        4859.369         602.214
       35745.715        2740.938         522.157
       35606.626        2399.427         549.897
       41341.318        4376.769         434.653
       41553.413        3772.753         428.838
       38091.438        5036.101         525.951
       43090.702        4357.476         445.127
       45223.508        2942.634         480.050
       44559.941        2294.056         444.004
       46455.031        4465.238         547.340
       47954.620        3133.132         555.561
       44955.457        4860.661         598.621
       47207.430        2207.170         498.954
       48009.303        3224.253         537.835
       48268.051        3158.023         527.886
       48158.905        3717.499         692.370
       48434.715        4289.269         534.716
       52683.494        2975.380         433.819
       55483.978        3349.412         694.788
       52680.004        3467.148         517.123
       56194.983        3495.551         572.527
       54860.251        4230.722         840.840
       56100.588        3869.603         666.892
       61857.127        3161.571         526.383
       62191.974        3377.805         513.223
       62347.598        3127.058         510.059
       61781.563        3381.601         581.538
       65652.068        4269.374         528.707
       65985.348        3151.494         515.694
       66947.092        3759.173         770.622
       67339.005        3425.991         587.581
       67440.061        3451.323         547.622
       67480.829        3934.819         733.804
       67560.088        3577.356         614.444
       70885.872        4291.585         586.811
[...]
POINT_DATA       9874
SCALARS height float 1
LOOKUP_TABLE default
   372.8
   367.2
   367.1
   414.6
   353.3
   371.3
   250.3
   386.1
   411.9
   341.9
   436.9
   353.4
   439.3
   303.1
   397.6
   366.5
   385.9
   356.3
   362.9
   401.6
   342.5
   388.1
   338.3
   256.9
   417.4
   378.8
   261.6
   351.2
   386.7
   387.1
   353.1
   339.1
   327.0
   405.9
   343.2
   394.9
   376.8
   351.7
   332.7
   390.4
   343.4
   313.6
   403.5
   380.4
   406.4
   239.1
   367.3
   362.3
   265.3
   407.2
   412.7
   260.8
   309.6
   397.5
   365.9
   253.6
   347.9
   404.4
   441.7
   382.7
   616.3
   518.7
   553.8
   600.8
   565.2
   593.2
   541.2
   435.0
   570.9
   523.6
   529.1
   438.0
   601.2
   467.3
   498.7
   520.9
   392.5
   517.1
   436.0
   542.7
   558.8
   437.4
   559.3
   596.3
   465.6
   506.3
   495.8
   627.3
   606.5
   463.2
   446.5
   552.9
   633.3
   609.0
   421.5
   456.9
   545.5
   531.5
   395.2
   575.2
   395.3
   505.3
   385.0
   584.7
   446.8
   441.1
   405.0
   423.3
   615.0
   392.0
   497.6
   537.0
   432.3
   382.0
   569.3
   490.2
   597.7
   404.5
   465.9
   710.0
   469.5
   542.8
   624.8
   475.5
   401.4
   561.2
   457.2
   450.9
   547.9
   483.9
   539.8
   420.9
   502.5
   615.8
   544.7
   653.6
   462.0
   525.6
   505.5
   536.3
   334.8
   601.7
   721.5
   684.5
   558.8
   592.8
   420.1
   546.0
   519.6
   573.0
   440.3
   597.2
   432.5
   640.7
   552.9
   650.3
   521.3
   459.7
   699.7
   669.0
   554.2
   482.1
   572.3
   680.9
   468.1
   344.3
   406.1
   602.2
   522.2
   549.9
   434.7
   428.8
   526.0
   445.1
   480.0
   444.0
   547.3
   555.6
   598.6
   499.0
   537.8
   527.9
   692.4
   534.7
   433.8
   694.8
   517.1
   572.5
   840.8
   666.9
   526.4
   513.2
   510.1
   581.5
   528.7
   515.7
   770.6
   587.6
   547.6
   733.8
   614.4
   586.8
   549.5
   730.7
   671.6
   631.2
   647.4
   682.5
   581.9
   423.2
   436.0
   632.0
   430.5
   219.7
   574.4
   469.5
   637.7
   561.9
   759.0
   729.3
   653.2
   589.8
   586.8
   773.5
   693.1
   437.3
   561.4
   469.3
   537.0
   560.8
   669.3
   687.8
   627.8
   604.0
   555.8
   631.7
   642.8
   873.3
   462.6
   463.2
   725.1
   556.5
   590.4
   602.0
   610.9
   696.9
   645.7
   549.7
   722.4
   768.9
   642.1
   518.3
   419.5
   452.5
   682.2
   557.4
   777.7
   576.9
   546.5
   666.4
   570.7
   679.0
   451.0
   560.8
   859.3
   649.5
   732.4
   720.1
   569.6
   655.6
   764.9
   440.5
   525.0
   524.1
   529.9
   704.0
   671.0
   801.8
   776.6
   655.6
   622.8
   559.4
   726.5
   848.4
   811.0
   871.3
   494.2
   553.6
   465.8
   645.1
   804.4
   811.5
   640.4
   762.0
   614.1
   628.3
   718.1
   548.4
   669.9
   623.8
   587.7
   575.7
   571.9
   444.7
   515.1
   565.5
   746.7
   708.7
   819.4
   628.2
   652.3
   815.8
   685.2
   662.1
   691.9
   287.5
   389.0
   590.9
   504.7
   631.3
   504.3
   667.9
   649.1
   688.5
   552.7
   585.4
   753.4
   837.1
   529.1
   555.3
   611.2
   886.1
   837.0
   716.2
   685.3
   624.3
   660.7
   424.2
   490.7
   517.2
   857.5
   759.2
   686.4
   460.2
   432.9
   523.5
   527.1
   625.7
   630.5
   651.1
   960.6
   726.8
   904.1
   659.7
   825.2
   755.3
   838.4
   776.0
   593.8
   828.6
   757.9
   835.4
   714.6
   788.4
   807.5
   798.4
   434.4
   601.7
   580.3
   438.2
   493.9
   450.3
   736.5
   589.0
   563.0
   817.0
   649.6
   801.9
   841.9
   808.8
   746.9
   658.5
   798.6
   754.7
   794.2
   648.0
   838.1
   872.1
   714.9
   711.0
   600.4
   603.8
   739.8
   723.9
   637.8
   608.8
   708.5
   561.1
   524.9
   657.5
   634.7
   742.0
   745.2
   563.3
   737.0
   730.0
   821.0
   510.4
   593.6
   387.5
   517.2
   575.6
   471.2
   768.7
   610.2
   562.8
   531.2
   584.2
   567.1
   749.3
   791.8
   525.2
   570.2
   795.3
   664.8
   842.1
   888.6
   595.2
   643.4
   484.9
   631.1
   555.9
   790.4
   820.1
   839.6
   677.3
   588.8
   728.5
   518.6
   511.3
   734.6
   722.0
   806.0
   564.4
   603.5
   636.7
   641.0
  1035.6
   770.6
   896.0
   909.7
   931.5
   994.6
   865.5
   909.5
   995.3
  1063.7
   885.8
   837.1
   801.7
   700.9
   766.9
   758.1
   842.9
   620.7
   510.6
   577.7
   538.4
   437.8
   392.7
   386.9
   514.3
   499.4
   442.8
   464.6
   613.6
   564.8
   827.7
   719.3
   865.5
   774.3
   750.5
   852.2
   697.3
   838.7
   665.1
   580.8
   686.1
   650.2
   562.0
   588.2
   832.8
   954.7
   865.2
   757.1
   933.3
   873.2
   623.0
   694.8
   725.0
   969.6
   960.4
   928.6
   621.2
   765.1
   594.6
   592.0
   727.9
   806.2
   662.6
   632.4
   769.7
   736.8
   639.9
   862.9
   626.9
   842.6
   693.9
   894.4
   899.7
   917.5
   468.2
   775.3
   658.6
   622.9
   851.8
   978.2
  1072.9
   573.1
   401.4
   764.7
   734.6
   970.9
   962.0
   676.6
   729.3
   825.2
   802.8
   920.0
   937.9
   944.9
   878.6
   961.7
  1055.8
   916.9
   849.4
   925.4
  1011.9
   779.6
   694.1
   713.9
   687.9
   537.0
   560.3
   613.1
   533.5
   651.9
   570.0
   771.4
   753.6
   662.7
   736.1
   760.5
   655.1
   780.3
   762.0
  1009.2
  1039.7
   816.3
   917.1
   833.1
   867.2
   737.5
   936.7
   867.7
   902.9
   676.3
   710.6
   580.5
   730.2
   792.7
   869.4
   813.3
   615.1
   592.6
   803.2
   566.7
   484.9
   735.3
   822.8
   921.3
   854.2
   782.3
   905.9
   884.4
   939.7
   697.0
   636.3
   580.7
   757.4
   762.5
   435.2
   635.1
   849.2
   658.4
   580.7
   783.3
   875.0
   854.5
   831.3
   975.8
   796.2
   960.4
   874.7
   439.4
   565.6
   831.8
   963.0
  1081.3
   910.1
   798.3
   784.4
   751.0
   559.6
   641.1
   475.2
   620.6
   661.6
   833.4
   623.4
   817.1
   889.5
  1041.7
  1167.0
   943.7
   927.0
   716.3
   833.8
   641.4
   809.3
   771.6
   691.7
   633.3
   705.6
   727.1
   613.1
   503.0
   439.4
   566.0
   284.4
   545.6
   736.5
   839.5
   850.0
   802.6
   838.5
   714.2
   761.4
   815.6
   758.1
   859.2
   830.7
   926.1
   906.8
   917.0
  1072.2
   916.0
  1142.7
   881.9
   949.3
   886.1
   938.1
   739.7
   767.3
   678.4
   753.2
   922.3
   952.4
  1134.8
   845.4
   597.6
   516.6
   561.7
   513.5
   537.2
   516.3
   524.6
   677.5
   687.6
   685.9
   908.9
   903.8
   717.8
   777.6
   681.4
   928.9
   656.0
   740.3
   873.5
   751.6
   776.0
   562.4
   775.9
   733.0
   629.6
   818.4
   949.8
   892.1
   574.6
   521.3
   783.6
   665.4
   812.0
  1056.4
  1057.0
  1087.9
  1001.5
  1030.8
  1032.1
   744.7
   655.6
   463.7
   551.7
   551.8
   517.6
   406.8
   372.2
   363.7
   499.4
   486.7
   579.6
   519.8
   434.4
   414.3
   608.6
   478.7
   462.4
   686.7
   751.7
   530.0
   591.5
   642.5
   772.8
   751.4
   635.5
   826.6
   847.0
   946.3
   969.9
   965.4
  1060.8
  1080.3
  1146.2
   652.5
   788.4
   976.9
   984.0
  1238.1
   961.9
   646.3
   556.5
   630.0
   836.3
   570.2
   861.6
   751.4
   713.6
   571.2
   921.6
  1091.7
   992.0
  1036.7
   949.5
   702.8
   957.7
   810.7
   906.0
  1008.3
   842.1
   965.8
   920.1
   886.4
   968.6
  1101.8
  1027.9
   611.8
   682.2
   884.7
   868.5
   915.4
   806.3
   793.2
   891.9
   670.0
   715.4
   599.4
   996.8
  1114.1
  1084.0
   866.7
   984.3
  1006.8
   980.4
   888.5
   937.6
   907.7
   869.4
   881.6
   632.8
   902.0
   860.8
   778.8
   633.4
   680.6
   593.6
   613.7
   714.2
   577.1
   677.8
   636.0
   455.7
   411.9
   447.2
   481.2
   538.6
   702.1
  1085.7
  1010.4
   975.8
  1014.3
   897.8
  1023.7
   955.6
   879.7
   964.2
   966.0
   929.4
  1095.2
  1154.1
   829.5
   942.0
   875.1
   708.6
   713.3
   829.9
   662.0
   927.6
   860.5
   595.4
   767.6
   628.8
   545.5
   797.8
   880.1
   676.5
   796.8
   733.9
  1023.8
  1000.0
   735.0
  1078.3
   919.7
   924.0
   906.3
  1146.5
  1043.6
   922.2
   657.9
   923.2
   997.3
   872.5
   758.3
   791.5
   765.0
   715.2
   862.9
   975.9
   653.0
   629.2
   653.1
   804.4
   737.7
   944.2
  1097.7
  1134.1
   770.0
   925.8
   981.5
  1029.6
   754.5
   974.1
   889.7
   854.9
   763.4
   741.0
   771.3
   726.1
   561.4
   628.4
   513.8
   438.1
   662.2
   544.0
   465.8
   370.7
   410.9
   434.6
   595.5
   665.2
   644.9
   563.4
   752.0
   542.0
   673.1
   602.7
   634.3
   535.7
   801.3
   664.7
   777.4
   839.4
   705.5
   949.2
   845.8
   823.6
   821.5
   920.9
  1047.6
   917.8
   996.8
   925.5
   906.6
  1053.7
   931.1
  1201.0
  1309.2
  1178.9
  1236.1
   976.3
  1158.1
  1190.9
  1261.4
  1154.6
  1103.0
   690.3
   794.4
   862.5
   858.4
   926.1
   713.7
   830.3
   676.7
   760.7
   669.5
   800.3
   935.3
   833.2
   743.1
   841.1
  1061.9
  1102.5
  1132.1
  1057.1
  1138.5
  1113.8
  1163.9
  1249.1
   840.3
   754.5
   678.0
   772.7
   998.4
   911.0
   997.2
   788.1
   710.0
   712.0
  1160.4
   983.7
  1082.0
  1056.5
   874.3
   728.1
   679.2
   625.4
   631.7
   584.5
   772.7
   503.4
   710.1
   492.0
   671.7
   538.4
   449.0
   544.4
   466.7
   619.1
   521.7
   518.9
   432.1
   469.3
   557.8
   647.4
   465.1
   631.8
   780.9
   586.1
   676.8
   604.7
   818.4
   751.0
   588.5
   676.2
   864.9
   801.9
   684.1
   948.6
   779.6
   979.6
  1357.1
  1170.1
  1169.3
   834.5
   868.0
   999.7
   917.6
   990.6
   797.6
   724.5
   776.3
   932.0
   799.2
   987.8
   916.9
   960.5
   925.1
   893.8
  1430.2
  1263.9
  1409.4
  1259.0
  1265.2
  1173.0
   947.3
   862.4
   760.4
   908.9
   786.0
  1127.6
  1086.5
  1074.0
  1047.8
   903.4
   940.1
   816.3
   819.0
   677.0
  1211.2
  1055.4
  1201.6
   870.2
   830.3
   835.4
   753.0
   748.6
   822.1
   971.3
   624.9
   429.7
   517.1
   723.1
   643.6
   675.1
   451.3
   460.1
   624.9
   400.9
   466.4
   424.8
   485.4
   550.8
   559.9
   573.9
   639.3
   628.0
   687.9
   554.0
   808.7
  1142.3
  1370.1
  1154.2
  1182.8
  1338.1
  1070.3
  1116.9
  1312.9
  1168.3
  1296.4
  1120.7
  1153.7
   752.4
  1018.1
   927.0
  1042.6
  1155.7
   824.9
  1134.5
   986.2
  1112.5
  1248.8
   989.3
  1198.3
  1134.0
  1303.0
  1283.2
  1135.2
   996.4
  1219.5
  1552.3
  1512.9
  1487.8
  1522.6
  1220.4
  1159.4
   938.9
  1201.2
  1231.0
  1243.6
  1415.7
  1205.5
  1379.2
  1227.3
  1076.4
  1017.4
   901.9
  1076.3
  1247.1
  1102.9
  1206.0
  1338.6
   949.8
   834.3
   955.3
   593.9
   694.4
   758.2
   640.0
   679.7
   855.0
   691.5
   701.4
   685.2
   675.4
   576.3
   651.9
   622.0
   698.8
   527.0
   486.8
   614.0
   474.7
   304.7
   489.5
   572.2
   648.9
   395.1
   473.5
   541.1
   558.3
   437.4
   612.0
   598.7
   536.6
   604.6
   664.4
   649.8
   641.5
   640.9
   828.9
   829.5
   841.3
   733.3
   772.9
   758.7
   932.5
  1176.1
  1203.1
   972.8
  1352.1
  1449.3
  1426.3
  1471.1
  1619.5
  1608.9
  1531.4
  1485.7
  1636.9
  1636.8
  1434.2
  1517.6
  1457.2
  1172.4
  1244.9
  1466.5
   749.2
   864.2
   981.6
  1379.6
  1420.2
  1319.6
  1629.6
  1659.0
  1542.5
  1565.7
  1580.2
  1478.9
  1526.2
  1148.2
  1026.7
  1147.0
  1439.1
  1438.4
  1509.3
  1558.3
  1562.2
  1509.8
  1338.2
  1261.5
  1297.1
  1323.9
  1329.6
  1343.2
  1294.6
  1275.1
  1470.5
   920.5
   887.1
   910.7
   788.0
   992.6
   986.5
  1013.8
   763.6
   918.8
  1019.6
   893.3
   821.5
   911.6
   823.7
   850.2
   877.6
   714.2
   846.4
   777.1
   677.2
   468.6
   547.4
   434.1
   578.2
   541.4
   476.5
   486.1
   721.6
   780.7
   865.2
   825.0
   879.3
   861.4
   815.3
   890.6
   963.3
   923.7
   996.1
   989.3
  1059.1
  1080.4
  1360.9
  1177.7
  1310.6
  1464.3
  1505.5
  1467.9
  1751.7
  1629.1
  1534.1
  1663.9
  1893.8
  1709.2
  1667.8
  1432.3
  1634.7
  1500.0
  1137.3
  1150.8
  1207.3
  1279.4
  1403.9
  1379.7
  1327.2
  1518.5
  1510.7
  1348.5
  1481.2
  1754.3
  1754.1
  1572.5
  1742.1
  1907.4
  1770.9
  1819.7
  1910.6
  1661.1
  1357.6
  1535.5
  1415.1
  1533.7
  1414.7
  1766.7
  1635.4
  1745.4
  1758.3
  1664.4
  1660.7
  1826.4
  1738.7
  1320.6
  1308.9
  1476.0
  1367.4
  1058.8
  1336.6
  1338.9
  1374.8
  1461.4
  1353.5
  1120.4
  1253.2
  1194.9
   866.1
  1108.2
   967.8
  1057.8
   844.5
  1023.8
   742.7
   789.6
   660.9
   796.7
   573.9
   636.7
   684.0
   497.5
   486.0
   614.5
   438.2
   609.3
   463.0
   486.4
   465.3
   664.3
   695.3
   650.1
   837.1
   796.4
   675.4
   668.8
   955.3
   905.6
   848.2
   902.0
   836.6
   857.1
   651.2
   831.7
   770.9
   893.2
   886.4
   945.4
   794.5
  1136.4
  1102.5
   815.0
  1185.6
  1367.5
  1229.9
  1402.2
  1710.8
  1430.6
  1720.5
  1626.3
  1747.7
  1935.3
  1793.5
  1804.4
  1552.7
  1789.1
  1486.5
  1322.8
  1479.3
  1679.0
  1506.0
  1670.8
  1878.7
  1854.4
  1887.2
  1841.8
  1775.2
  2072.6
  2075.4
  1962.1
  1861.8
  2117.9
  1968.8
  2116.2
  1969.4
  1824.1
  1840.4
  1975.7
  1772.7
  1787.9
  1800.4
  1659.6
  1836.5
  1763.5
  1842.3
  1615.6
  1487.4
  1762.8
  1163.6
  1167.7
  1351.7
   975.3
   985.1
   986.3
   800.9
  1114.4
  1013.1
   969.4
   875.6
   919.0
   735.0
   742.4
   615.7
   481.7
   506.8
   560.8
   353.2
   594.7
   456.9
   522.5
   611.1
   555.9
   615.4
   497.3
   636.7
   486.0
   704.3
   571.4
   683.7
   622.3
   480.3
   563.6
   642.2
   568.2
   619.0
   702.6
   656.0
   745.4
   819.0
  1005.9
   990.5
   801.0
   683.5
  1038.6
   802.4
   992.2
  1159.2
   889.4
  1217.9
  1741.6
  1576.7
  1931.6
  1829.1
  1706.7
  1830.7
  1813.8
  1529.4
  1830.4
  1711.0
  2113.2
  2122.8
  2123.5
  1998.9
  2122.7
  2194.6
  2122.8
  2070.4
  2088.1
  2078.2
  2076.0
  2078.8
  1918.9
  2080.5
  1989.0
  2158.3
  1835.0
  1179.0
  1073.9
  1111.3
   741.6
   872.0
   774.4
   875.8
   865.5
   807.5
   989.8
   901.1
   851.9
   932.4
   859.7
   840.1
   842.3
   719.9
   662.2
   697.2
   755.8
   645.5
   552.8
   723.9
   626.7
   679.5
   674.8
   550.0
   478.7
   656.2
   721.3
   460.8
   525.4
   711.0
   627.3
   620.8
   482.4
   634.7
   512.0
   474.8
   485.1
   622.3
   604.6
   668.3
   586.5
   763.4
   765.8
   652.8
   981.9
   928.3
  1605.2
  1433.1
  1416.7
  2055.0
  1967.9
  2033.1
  1966.4
  2017.9
  2009.0
  2023.5
  1990.5
  1820.0
  2122.8
  2155.9
  2154.7
  2122.8
  2122.8
  2122.7
  2122.7
  2049.0
  2122.7
  2035.2
  2004.9
  2090.8
  1829.2
  1590.8
  1639.2
  1626.0
  1755.7
  1305.1
  1188.3
  1316.0
  1148.1
   880.4
   679.0
   879.7
   668.5
   730.3
   617.9
   815.2
   788.8
   828.5
   858.4
   645.3
   804.8
   510.3
   813.9
   623.8
   557.7
   662.1
   416.3
   726.3
   639.3
   567.4
   819.5
   477.9
   438.5
   545.3
   406.6
   593.0
   492.0
   408.2
   545.4
   413.8
   396.7
   436.3
   369.8
   462.1
   539.0
   634.3
   538.8
   615.3
   605.4
   639.8
   567.6
   571.2
   653.2
   776.8
   635.6
   807.3
   622.4
   951.0
   847.4
   783.2
   789.4
   615.2
   659.4
   659.0
   722.2
   807.6
   780.5
   976.4
   997.0
  1237.9
  1425.9
  1280.1
  1970.0
  1970.9
  1979.2
  1749.2
  2182.4
  2186.2
  2051.5
  2004.3
  2051.9
  2047.5
  2256.3
  2006.9
  2269.0
  2269.0
  2269.0
  2122.8
  2269.0
  2252.2
  2252.2
  2170.9
  2048.8
  2040.3
  1765.4
  2020.4
  1464.1
  1712.8
  1772.4
  1429.4
  1445.1
  1377.7
  1305.9
  1088.9
  1172.9
  1382.7
  1407.9
  1093.9
  1153.5
   937.0
  1017.8
   648.6
   610.2
   623.6
   600.5
   532.1
   531.4
   541.2
   486.9
   563.0
   456.7
   436.6
   626.1
   670.2
   468.1
   630.0
   484.4
   699.4
   592.6
   473.8
   345.3
   505.2
   592.3
   714.2
   657.4
   625.3
   922.9
   887.9
   980.4
  1051.3
   878.4
   868.8
   911.1
   870.6
   752.6
   889.7
   873.7
   975.1
  1129.4
  1237.7
  1664.5
  1591.3
  1643.6
  1722.5
  1970.7
  1996.9
  1860.6
  2196.0
  2196.2
  2168.7
  2269.3
  2012.9
  2012.4
  2122.8
  2123.0
  2123.0
  2269.1
  2122.8
  2122.8
  2122.8
  2213.4
  2252.2
  2269.1
  2122.9
  2048.5
  2171.4
  1793.8
  2030.0
  1397.9
  1197.1
  1063.4
  1062.9
  1057.6
  1067.2
  1024.2
   977.9
   858.1
   691.6
   660.9
   926.1
   677.4
   779.6
   861.2
   711.2
   634.9
   721.8
   740.4
   781.0
   779.9
   798.2
   649.1
   422.8
   409.8
   659.9
   459.7
   553.7
   440.8
   319.5
   514.6
   458.6
   394.7
   584.0
   580.4
   692.7
   645.2
   650.7
   471.8
   745.5
   680.1
   716.9
   602.8
   638.8
   718.3
   718.2
   754.9
   754.3
   808.2
  1049.0
  1007.5
   903.2
  1125.5
  1308.9
  1300.8
  1191.6
  1214.9
  1305.6
  1291.2
  1398.5
  1418.4
  1270.4
  1513.3
  1576.2
  1542.1
  1855.8
  1680.7
  1592.6
  1976.8
  1823.4
  2004.7
  2186.4
  2197.9
  2122.8
  2186.2
  2122.8
  2122.8
  2269.1
  2269.1
  2269.1
  2122.9
  2269.2
  2269.2
  2213.4
  2213.4
  2252.2
  2252.2
  2252.2
  2058.1
  1890.0
  2041.7
  2059.0
  1552.0
  1562.4
  1458.6
   788.1
   720.8
   679.4
  1038.8
  1087.0
   950.2
   851.5
   850.9
  1018.1
   774.2
  1100.0
   759.6
   748.0
   866.8
   890.3
   607.0
   626.7
   821.2
   688.8
   699.8
   414.0
   459.0
   513.3
   417.3
   556.1
   474.4
   583.3
   560.3
   587.7
   620.2
   730.2
   572.5
   605.5
   686.5
   727.9
   657.7
   701.1
   839.9
   912.5
   744.8
   954.6
   675.9
   878.0
   841.8
   828.3
  1086.2
  1026.6
  1244.5
  1016.3
  1112.3
  1340.0
  1110.2
  1401.3
  1234.2
  1383.3
  1574.5
  1568.2
  1569.9
  1372.9
  1805.6
  1693.9
  1543.6
  2048.1
  1978.9
  2123.0
  2123.0
  2050.5
  2122.8
  2269.1
  2269.2
  2252.8
  2269.2
  2269.2
  2269.1
  2245.9
  2138.1
  2269.2
  2131.2
  2127.6
  1735.5
  1750.7
  1760.9
  1475.7
  1282.1
  1167.0
  1115.5
  1282.8
   944.9
   871.7
   926.1
   773.5
  1269.3
  1148.7
  1221.8
  1224.9
   837.9
   741.2
   743.5
   722.2
   680.2
   668.4
   567.4
   557.7
   554.0
   686.4
   436.6
   648.7
   657.3
   479.2
   531.6
   615.1
   521.2
   408.0
   504.1
   539.0
   452.8
   518.5
   407.6
   365.9
   432.4
   534.8
   442.2
   479.3
   486.4
   661.2
   687.3
   585.2
   503.1
   572.1
   657.6
   468.7
   651.9
   596.9
   768.7
  1018.5
   948.1
  1064.0
  1051.6
  1068.5
  1376.3
  1372.5
  1477.9
  1281.2
  1236.7
  1507.1
  1485.3
  1945.7
  1960.1
  2052.7
  2052.8
  1900.0
  2122.8
  2135.0
  2122.8
  2122.8
  2122.8
  2122.8
  2269.2
  2269.2
  2269.2
  2171.8
  2122.7
  2269.2
  2269.1
  2269.1
  2246.0
  2171.8
  2244.7
  2122.8
  1984.2
  2145.4
  2148.3
  1895.2
  1643.9
  1598.0
  1729.4
  1027.2
  1308.8
  1328.8
  1283.3
  1217.2
  1274.7
  1037.6
  1025.8
  1090.7
  1158.4
  1143.3
   924.7
   725.3
   906.2
   970.2
   895.0
   806.3
   640.8
   831.4
   742.0
   737.4
   556.1
   569.1
   751.5
   785.5
   774.2
   810.1
   821.0
   859.3
   519.2
   418.0
   480.6
   480.9
   426.5
   323.8
   457.3
   476.9
   375.9
   628.2
   622.9
   766.0
   841.9
   731.5
  1266.0
  1203.1
  1143.1
  1090.7
   930.2
   932.7
  1638.1
  1471.1
  1628.3
  2139.1
  2143.4
  1940.0
  2269.1
  2269.2
  2175.0
  2269.1
  2269.2
  2269.2
  2269.2
  2122.7
  2122.7
  2122.8
  2122.8
  2122.8
  2122.8
  2122.8
  2267.3
  2255.4
  2006.4
  1996.9
  1653.3
  1760.4
  1899.0
  1928.3
  1674.1
  1580.6
  1604.7
  1477.1
  1466.3
  1506.3
  1653.1
   908.9
  1035.5
  1046.9
  1088.2
  1057.1
   923.2
   810.5
   991.0
   789.5
  1124.1
  1034.9
  1000.5
  1050.3
   748.8
   873.1
   656.6
   679.4
   765.3
   752.3
   797.9
   523.6
   561.1
   658.6
   621.5
   439.9
   531.3
   589.3
   652.0
   452.3
   635.2
   524.7
   461.5
   578.2
   514.6
   652.3
   675.5
   603.6
   542.4
   780.4
   713.2
   538.6
   776.0
   508.3
   530.6
   504.6
   594.7
   727.2
   718.6
   560.9
   639.1
   740.6
   583.1
   726.6
   864.3
   818.0
  1122.0
   963.0
   822.4
   842.6
  1036.2
  1147.9
  1144.9
  1212.9
  1192.6
  1463.1
  1494.1
  1355.8
  1780.4
  1738.0
  1786.5
  2023.7
  1966.2
  2170.3
  2172.2
  2269.2
  2269.2
  2269.2
  2269.2
  2122.9
  2122.9
  2171.8
  2269.2
  2267.4
  2269.0
  2181.4
  2179.4
  2122.7
  2004.1
  1765.6
  1637.0
  1895.1
  1913.8
  1552.2
  1480.1
  1342.5
  1262.8
  1464.6
  1193.7
  1018.1
   932.9
  1207.5
   727.4