# vtk DataFile Version 3.0
divides
ASCII
DATASET UNSTRUCTURED_GRID
POINTS       8272 float
        1764.141        1366.604         366.977
        5688.891        1077.177         368.264
        4506.161        1261.551         357.349
        7828.821        1237.037         411.695
        8178.056        1218.044         349.782
       11194.521        1408.003         368.922
       10798.178         508.264         248.734
       13888.095        1166.227         386.580
       11619.301        1453.838         409.496
       14485.115        1169.335         342.633
       18394.627        1022.302         356.722
       17251.152        1782.769         405.092
       20653.804        1542.455         427.922
       21377.778         613.010         295.348
       20885.842        1559.511         384.108
       25038.693         916.365         366.805
       23791.964        1388.339         368.661
       26299.016         915.603         356.815
       27441.734        1261.411         356.741
       30005.307        1536.697         417.150
       30914.159         618.906         288.831
       34408.812        1544.645         402.059
       33460.625        1217.277         350.551
       33105.558         476.279         263.556
       34643.310        1548.613         393.655
       37097.561        1405.478         373.589
       38838.054         508.113         257.548
       38268.603        1187.597         347.150
       37168.303        1340.012         408.877
       40720.486         980.202         361.876
       41815.787        1662.053         397.347
       43339.197        1188.815         348.012
       45890.295         896.092         326.190
       47644.424        1180.648         401.770
       50481.515         836.282         351.205
       49942.781        1673.982         402.076
       49062.965         939.721         333.849
       51828.674         834.118         359.592
       52904.580        1042.540         329.370
       55446.859        1132.377         387.185
       55866.378        1113.957         339.894
       59084.937         965.974         319.037
       61894.473        1186.466         397.394
       60509.133        1339.176         372.181
       63583.251        1415.732         419.072
       64352.852         522.970         242.192
       63812.780        1439.232         382.793
       67268.126        1192.250         353.032
       66794.303         528.175         255.678
       67756.875        1232.736         400.192
       70383.850        1694.141         407.443
       69905.243         472.977         262.766
       72135.831         906.407         310.919
       74673.581        1184.777         398.498
       72696.606         946.457         367.001
       75645.131         491.236         254.493
       75106.430        1162.407         349.030
       76244.528        1568.032         405.286
       78337.397        1396.355         440.298
       78640.436        1397.497         380.692
       79476.330         691.850         598.402
         867.397        1712.504         493.147
        1604.073        3176.437         535.663
         730.543        2652.706         536.058
        3393.992        1670.430         554.485
        4863.227        2585.700         561.136
        3499.234        2896.680         605.240
        4922.419        1608.538         426.907
        7670.760        2913.013         561.201
        9108.809        1918.443         510.354
        7417.280        2209.853         520.975
        7637.556        1631.131         435.853
        9160.171        3022.579         581.395
        8858.396        1390.724         459.005
       12458.271        1934.325         492.531
       12648.674        2346.938         513.874
       10602.443        2154.719         385.677
       16823.154        1910.978         505.431
       17421.940        1900.814         427.695
       16782.369        2075.383         531.244
       17347.166        2497.784         578.188
       20535.791        1793.308         430.124
       20777.877        2622.778         577.289
       21425.257        2299.951         562.833
       21281.979        1694.554         443.251
       20463.686        2168.865         508.956
       24347.914        2146.286         482.091
       22651.505        2473.873         550.558
       23160.397        1651.804         437.380
       24295.234        1712.767         430.265
       27284.713        2665.240         542.810
       29462.252        1611.129         611.242
       29109.845        2321.543         598.831
       27004.534        1577.439         416.377
       30303.901        1681.411         474.738
       30333.309        1382.227         515.456
       30168.874        2038.424         547.466
       32132.707        1996.832         414.170
       36255.473        1546.182         658.025
       37219.023        1460.838         419.051
       37041.878        1787.390         514.570
       39038.943        1752.704         390.375
       38079.075        4756.962         556.966
       39319.092        2764.955         463.372
       41488.499        2222.800         517.692
       42023.950        2437.687         556.520
       42236.445        2149.118         511.384
       42140.358        1857.986         437.294
       41562.900        1821.393         429.899
       44483.978        1660.389         414.777
       49528.563        1413.940         574.962
       50187.679        2033.841         452.993
       49530.303        1782.857         512.044
       48964.557        2569.141         669.344
       54583.814        1534.728         518.691
       52185.662        2142.014         450.957
       52292.572        1503.760         392.439
       57008.235        3098.053         578.069
       56815.686        1566.336         492.214
       54133.654        2438.304         574.338
       60209.189        1534.339         405.915
       57990.986        3473.450         485.607
       61323.897        2358.531         633.747
       60212.321        1893.101         482.034
       60996.780        1551.864         506.836
       62909.586        2446.222         626.552
       63338.215        1656.245         469.951
       63878.541        1993.660         432.957
       68252.991        1958.905         444.367
       68150.750        1415.778         437.150
       69971.810        2380.149         557.158
       70776.194        1818.893         477.014
       70871.782        2175.911         532.869
       70129.278        1975.029         419.820
       73972.160        1555.164         501.014
       73787.871        3782.167         611.110
       73704.369        2223.908         541.708
       76911.259        1672.797         638.160
       79213.792        1673.790         453.751
       78679.866        2407.740         517.389
         661.870        3786.042         503.799
        4332.978        4223.856         787.371
        3726.092        3237.052         628.519
        2992.649        3400.938         584.082
        5636.261        4163.365         587.540
        5412.547        3289.412         378.246
        8969.492        5773.359         726.222
       10757.948        4099.895         675.050
        9989.046        3329.751         544.364
        8867.155        3724.140         591.741
       10613.621        2586.175         411.204
       12171.593        2840.250         538.420
       16886.268        3357.878         533.000
       11851.862        4206.693         568.925
       17692.500        4079.563         490.505
       16387.015        3786.356         594.848
       17854.762        3143.977         446.907
       22530.068        4697.188         652.742
       21825.497        3780.739         576.001
       23462.986        3306.226         627.420
       21569.818        3443.587         549.919
       24030.927        3399.065         499.914
       26926.586        3066.423         472.677
       28555.942        4323.700         730.357
       28042.453        3048.726         657.160
       27211.293        3700.804         597.631
       30924.994        3401.926         530.495
       30017.071        4500.421         618.256
       34016.803        2523.438         385.284
       32146.903        2345.338         429.568
       35490.956        2660.893         523.954
       35187.566        2166.659         559.926
       41411.722        4431.160         491.926
       41626.299        3786.503         485.623
       38301.755        4888.032         553.297
       43007.651        4576.258         503.513
       45024.022        2964.901         497.307
       44400.835        2426.476         458.443
       46466.938        4551.308         543.110
       47728.781        3093.517         526.335
       47150.887        2243.183         484.131
       44963.843        4847.290         583.226
       47809.513        3308.352         503.908
       48609.244        3133.747         541.997
       48163.872        3929.772         641.070
       48435.966        4288.654         565.536
       52569.342        2973.692         461.315
       55498.537        3351.680         660.560
       52381.553        3792.949         569.531
       56344.243        3546.033         604.438
       54744.791        4311.771         801.958
       56154.045        4105.625         731.369
       61560.778        3168.999         528.904
       62280.618        3670.441         519.254
       62608.612        3094.528         499.760
       61431.530        3613.062         599.997
       65479.103        4114.016         522.387
       65775.807        3123.570         510.337
       67098.257        3664.777         680.552
       67429.959        3448.909         529.896
       67486.219        3418.857         547.651
       67658.550        3680.548         647.491
[...]
POINT_DATA       8272
SCALARS height float 1
LOOKUP_TABLE default
   367.0
   368.3
   357.3
   411.7
   349.8
   368.9
   248.7
   386.6
   409.5
   342.6
   356.7
   405.1
   427.9
   295.3
   384.1
   366.8
   368.7
   356.8
   356.7
   417.2
   288.8
   402.1
   350.6
   263.6
   393.7
   373.6
   257.5
   347.2
   408.9
   361.9
   397.3
   348.0
   326.2
   401.8
   351.2
   402.1
   333.8
   359.6
   329.4
   387.2
   339.9
   319.0
   397.4
   372.2
   419.1
   242.2
   382.8
   353.0
   255.7
   400.2
   407.4
   262.8
   310.9
   398.5
   367.0
   254.5
   349.0
   405.3
   440.3
   380.7
   598.4
   493.1
   535.7
   536.1
   554.5
   561.1
   605.2
   426.9
   561.2
   510.4
   521.0
   435.9
   581.4
   459.0
   492.5
   513.9
   385.7
   505.4
   427.7
   531.2
   578.2
   430.1
   577.3
   562.8
   443.3
   509.0
   482.1
   550.6
   437.4
   430.3
   542.8
   611.2
   598.8
   416.4
   474.7
   515.5
   547.5
   414.2
   658.0
   419.1
   514.6
   390.4
   557.0
   463.4
   517.7
   556.5
   511.4
   437.3
   429.9
   414.8
   575.0
   453.0
   512.0
   669.3
   518.7
   451.0
   392.4
   578.1
   492.2
   574.3
   405.9
   485.6
   633.7
   482.0
   506.8
   626.6
   470.0
   433.0
   444.4
   437.2
   557.2
   477.0
   532.9
   419.8
   501.0
   611.1
   541.7
   638.2
   453.8
   517.4
   503.8
   787.4
   628.5
   584.1
   587.5
   378.2
   726.2
   675.1
   544.4
   591.7
   411.2
   538.4
   533.0
   568.9
   490.5
   594.8
   446.9
   652.7
   576.0
   627.4
   549.9
   499.9
   472.7
   730.4
   657.2
   597.6
   530.5
   618.3
   385.3
   429.6
   524.0
   559.9
   491.9
   485.6
   553.3
   503.5
   497.3
   458.4
   543.1
   526.3
   484.1
   583.2
   503.9
   542.0
   641.1
   565.5
   461.3
   660.6
   569.5
   604.4
   802.0
   731.4
   528.9
   519.3
   499.8
   600.0
   522.4
   510.3
   680.6
   529.9
   547.7
   647.5
   558.2
   602.6
   556.8
   743.9
   680.7
   623.5
   664.9
   692.7
   572.5
   421.1
   435.5
   618.4
   432.0
   220.3
   565.7
   466.8
   645.3
   616.2
   715.4
   845.0
   662.2
   624.1
   594.4
   786.5
   740.3
   522.7
   429.7
   570.0
   513.6
   557.6
   599.6
   764.2
   736.1
   780.2
   688.2
   579.3
   666.3
   706.0
   723.5
   962.8
   546.8
   496.8
   523.6
   746.5
   711.8
   616.0
   620.8
   753.2
   711.8
   609.6
   636.6
   740.4
   751.0
   568.7
   743.5
   630.2
   503.8
   551.5
   690.2
   625.9
   807.3
   683.9
   616.9
   686.1
   686.7
   794.1
   572.0
   625.2
   539.8
   876.5
   836.8
   791.5
   662.6
   783.0
   842.0
   494.9
   567.2
   550.9
   625.8
   582.9
   616.5
   658.9
   690.8
   736.6
   702.8
   650.5
   721.1
   579.6
   718.4
   745.5
   876.2
   860.1
   481.8
   509.4
   438.8
   601.9
   765.8
   871.0
   681.6
   654.1
   636.3
   763.3
   833.0
   601.2
   689.7
   750.3
   689.8
   631.5
   651.2
   477.7
   627.8
   661.9
   910.6
   699.3
   847.8
   644.1
   726.5
   778.6
   932.0
   901.7
   792.1
   958.4
   809.3
   930.9
  1001.0
   470.1
   606.5
   784.5
   693.4
   809.9
   611.3
   835.1
   798.0
   827.4
   682.5
   708.1
   776.3
   932.6
   776.7
   694.1
   726.3
   909.9
   878.8
   857.1
   860.9
   737.4
   561.3
  1042.1
  1009.9
   855.8
   596.7
   518.2
   598.3
   596.5
   704.6
   685.7
   721.6
   897.6
   851.4
   779.0
   828.9
   933.4
   957.5
   815.8
   948.5
   864.8
   683.4
   873.3
   820.2
   872.0
   719.3
   722.6
   860.1
   849.4
   420.9
   567.0
   539.6
   434.9
   490.6
   441.2
   593.7
   558.7
   965.9
   899.1
   964.3
   890.8
   779.7
   862.3
   792.1
   908.6
   985.3
  1034.6
   776.9
  1033.5
  1017.9
   914.6
   954.8
   796.6
   915.3
   823.7
   882.5
   901.4
   688.5
   734.7
  1029.5
   930.7
  1040.4
  1146.5
  1117.8
  1007.5
  1137.0
  1091.0
   866.4
   967.4
   557.6
   630.7
   823.8
   915.9
   828.2
   814.5
   748.6
   825.4
   992.3
  1064.1
  1054.7
   809.4
   977.8
   921.5
  1018.7
  1136.5
   959.4
  1112.3
  1115.3
   995.4
  1100.1
  1087.3
   888.5
  1047.5
  1023.8
   841.9
  1056.6
  1042.2
   790.8
   666.1
   661.4
   965.4
   905.4
   948.4
   764.5
   881.2
   837.2
  1223.0
  1072.4
  1231.0
  1191.0
  1039.7
  1194.9
  1219.4
  1100.1
  1091.4
  1003.2
  1098.4
   723.1
   898.2
   797.0
   865.0
   586.6
   509.1
   549.2
   513.7
   438.0
   390.3
   390.8
   480.8
   499.0
   433.9
   466.3
   670.3
   659.4
  1077.8
   893.8
  1173.7
  1015.5
  1222.8
  1178.0
  1264.9
  1007.8
  1211.5
  1038.4
  1227.0
  1229.2
  1019.1
  1070.8
  1273.3
  1277.0
  1276.9
  1272.6
  1222.9
  1196.6
  1222.9
  1222.9
  1189.9
  1083.5
   873.0
  1055.1
  1239.3
  1242.8
  1096.3
  1132.7
  1058.7
  1009.7
  1040.8
  1087.9
  1101.5
  1092.8
  1296.1
  1300.6
  1019.4
  1129.6
  1139.3
  1137.7
  1369.0
  1369.0
  1261.8
  1262.1
  1254.3
  1320.4
  1320.9
  1311.7
  1311.9
  1312.2
  1069.6
   822.7
  1129.2
  1163.5
  1077.4
  1189.4
  1181.2
  1062.8
  1223.3
   969.8
  1279.2
  1223.0
  1289.2
  1206.9
  1223.0
  1192.3
  1208.3
  1100.1
  1267.3
   682.6
   751.6
   834.8
   640.1
   548.3
   519.2
   546.9
   553.0
   543.5
   707.7
   683.9
   626.2
   842.5
   867.2
   841.3
  1084.3
  1116.2
  1119.6
  1074.9
  1118.3
  1222.8
  1226.1
  1288.9
  1222.8
  1194.1
  1222.8
  1222.8
  1222.7
  1368.2
  1368.2
  1216.9
  1283.0
  1347.3
  1232.2
  1365.6
  1222.9
  1365.6
  1283.0
  1344.9
  1366.0
  1104.2
  1064.0
  1266.4
  1357.9
  1255.1
  1273.8
  1263.7
  1080.5
  1084.7
  1215.2
  1324.4
  1325.7
  1322.5
  1332.1
  1222.8
  1222.8
  1222.8
  1369.0
  1369.0
  1369.0
  1222.7
  1350.2
  1349.9
  1348.4
  1359.8
  1288.9
  1323.4
  1029.5
  1182.0
   957.1
  1041.9
  1270.6
  1286.7
  1236.3
  1342.9
  1362.6
  1313.4
  1234.0
  1220.8
  1278.4
  1211.2
  1058.0
  1205.7
  1081.2
  1032.2
   852.2
   869.1
   571.9
   713.3
   495.6
   431.0
   502.8
   263.9
   526.2
   628.7
   758.0
   912.7
   663.0
   767.6
   944.8
   995.4
  1045.6
  1088.0
  1264.8
  1222.8
  1222.8
  1222.8
  1226.1
  1226.1
  1226.1
  1222.7
  1369.1
  1265.4
  1283.0
  1222.7
  1232.2
  1369.1
  1258.2
  1222.5
  1358.4
  1358.3
  1222.8
  1222.5
  1255.1
  1255.1
  1255.1
  1255.1
  1367.4
  1367.5
  1367.6
  1227.2
  1369.0
  1369.3
  1223.3
  1369.1
  1223.0
  1369.0
  1222.8
  1369.0
  1369.0
  1369.0
  1369.0
  1222.7
  1222.7
  1222.7
  1222.8
  1292.1
  1281.5
  1224.3
  1222.8
  1342.9
  1340.4
  1329.2
  1341.9
  1369.1
  1369.1
  1278.4
  1278.4
  1278.4
  1238.5
  1151.1
  1237.8
  1050.1
   619.7
   583.0
   564.1
   505.2
   409.1
   348.5
   361.4
   468.9
   467.5
   555.3
   534.5
   425.9
   411.6
   730.7
   610.5
   545.6
   719.2
   945.7
   680.6
   848.4
   931.9
  1277.5
  1172.2
  1369.1
  1369.1
  1340.4
  1222.8
  1222.7
  1369.1
  1222.7
  1222.7
  1369.2
  1232.2
  1369.2
  1369.2
  1222.9
  1239.2
  1222.5
  1369.1
  1222.5
  1222.6
  1222.8
  1369.0
  1222.8
  1280.7
  1298.5
  1222.8
  1222.8
  1222.8
  1369.0
  1222.8
  1369.0
  1369.1
  1222.8
  1369.0
  1284.5
  1369.0
  1369.1
  1367.3
  1222.8
  1222.8
  1222.8
  1222.8
  1328.7
  1326.8
  1331.5
  1369.1
  1369.1
  1369.0
  1369.1
  1313.4
  1313.4
   868.2
  1145.8
  1028.1
  1162.2
   980.0
   671.0
   778.3
   826.5
   865.4
   723.1
   570.1
   625.4
   618.2
   450.3
   419.1
   453.2
   486.0
   598.1
   813.7
  1172.7
  1339.7
  1343.5
  1343.4
  1222.8
  1222.7
  1222.7
  1222.7
  1222.7
  1369.2
  1369.2
  1369.2
  1369.1
  1232.2
  1369.1
  1222.9
  1369.1
  1258.2
  1222.9
  1222.9
  1222.9
  1369.0
  1369.0
  1369.0
  1298.5
  1280.7
  1222.8
  1222.8
  1238.5
  1224.5
  1222.8
  1222.7
  1222.8
  1222.8
  1222.8
  1369.1
  1369.1
  1222.8
  1367.3
  1369.0
  1284.5
  1369.1
  1369.1
  1369.1
  1363.3
  1369.1
  1222.8
  1369.1
  1369.0
  1369.0
  1222.8
  1222.8
  1243.7
  1121.3
  1005.8
  1241.6
   920.6
   825.6
   920.7
   584.8
   662.3
   486.7
   433.1
   620.8
   540.6
   466.8
   362.0
   414.5
   424.8
   558.7
   641.8
   625.3
   580.6
   891.0
   678.9
   887.7
   716.2
   575.2
  1179.6
   981.1
  1073.6
  1209.9
   936.4
  1176.3
  1352.0
  1353.5
  1369.1
  1369.1
  1367.7
  1369.2
  1369.1
  1369.2
  1369.1
  1369.1
  1369.1
  1369.1
  1336.5
  1369.0
  1369.0
  1369.0
  1222.8
  1369.0
  1369.0
  1369.0
  1222.8
  1222.7
  1222.8
  1369.1
  1230.3
  1369.1
  1222.7
  1284.5
  1369.0
  1369.0
  1369.0
  1222.8
  1369.0
  1369.1
  1369.0
  1369.1
  1369.1
  1222.8
  1222.8
  1222.8
  1222.8
  1368.2
  1259.4
  1308.1
  1138.9
  1305.7
  1128.2
  1308.3
  1306.2
   933.1
   571.7
   765.9
   538.2
   816.1
   676.9
   449.7
   527.8
   443.8
   462.2
   628.2
   613.8
   479.0
   544.9
   578.8
   939.7
   785.9
   960.9
  1167.7
  1047.5
  1179.3
  1367.6
  1366.0
  1367.6
  1369.1
  1369.1
  1369.2
  1369.2
  1369.2
  1369.1
  1369.2
  1369.1
  1369.2
  1369.1
  1369.1
  1369.1
  1369.1
  1369.1
  1369.0
  1369.1
  1369.0
  1222.8
  1222.8
  1222.8
  1222.8
  1224.5
  1222.9
  1369.0
  1238.5
  1369.0
  1222.6
  1222.7
  1222.7
  1222.7
  1222.6
  1222.8
  1369.0
  1222.8
  1222.8
  1292.0
  1369.0
  1369.0
  1292.0
  1369.1
  1369.1
  1222.7
  1307.7
  1259.4
  1259.4
  1259.6
  1368.4
  1143.3
  1360.0
   951.2
   774.0
   592.5
   713.7
   635.3
   632.7
   459.3
   455.6
   596.9
   404.7
   487.7
   440.7
   570.5
   958.0
  1071.8
  1327.2
  1366.2
  1366.4
  1345.4
  1226.0
  1369.1
  1222.8
  1369.1
  1237.1
  1369.2
  1369.1
  1222.9
  1369.1
  1222.9
  1222.9
  1293.6
  1369.0
  1277.0
  1222.8
  1369.1
  1222.8
  1222.8
  1369.1
  1369.1
  1369.0
  1369.1
  1291.3
  1222.9
  1238.5
  1222.6
  1222.6
  1222.8
  1222.8
  1222.6
  1222.9
  1369.0
  1369.1
  1222.9
  1292.0
  1222.7
  1292.0
  1222.7
  1222.7
  1222.7
  1369.2
  1369.1
  1369.0
  1369.2
  1259.6
  1369.1
  1298.0
  1259.6
  1296.5
  1097.2
  1061.0
   957.4
  1082.9
   811.3
  1107.5
   843.4
   907.6
   864.7
   717.2
   756.6
   744.9
   614.6
   698.1
   513.4
   468.6
   583.1
   458.4
   302.4
   462.7
   561.4
   587.2
   402.0
   448.1
   567.1
   666.4
   495.4
   593.5
   620.1
   821.0
   923.3
   836.9
  1344.9
  1346.3
  1265.9
  1347.3
  1241.0
  1369.1
  1369.1
  1366.7
  1222.8
  1327.2
  1369.1
  1369.1
  1229.5
  1369.1
  1369.1
  1369.1
  1369.0
  1369.1
  1369.2
  1277.0
  1369.1
  1369.1
  1369.2
  1326.2
  1369.2
  1222.8
  1222.6
  1222.6
  1222.6
  1222.6
  1222.6
  1222.6
  1222.6
  1222.6
  1369.1
  1222.9
  1369.1
  1222.9
  1222.6
  1368.9
  1222.9
  1368.9
  1368.9
  1368.9
  1222.8
  1259.6
  1222.8
  1368.9
  1222.8
  1343.0
  1361.2
  1369.1
  1216.2
  1185.1
  1097.5
  1225.5
   900.1
   866.9
   787.8
   919.3
   725.8
   706.9
   449.3
   535.6
   418.8
   542.5
   543.6
   452.0
   457.3
   688.3
   572.6
   773.0
   839.8
   955.1
  1076.7
  1162.4
  1204.9
  1306.6
  1366.7
  1268.6
  1223.0
  1369.1
  1237.1
  1226.0
  1321.1
  1223.0
  1369.1
  1369.0
  1369.1
  1327.2
  1223.1
  1369.1
  1369.1
  1369.1
  1223.1
  1369.0
  1277.0
  1369.1
  1222.8
  1369.1
  1369.2
  1326.2
  1265.3
  1326.2
  1326.2
  1369.2
  1369.0
  1222.9
  1222.7
  1222.7
  1222.7
  1369.1
  1369.1
  1222.9
  1369.1
  1369.1
  1222.9
  1222.9
  1222.9
  1369.1
  1369.0
  1222.6
  1241.3
  1368.9
  1222.6
  1368.9
  1222.9
  1368.9
  1259.5
  1222.6
  1222.8
  1259.5
  1369.1
  1368.3
  1099.4
  1368.3
  1026.4
  1082.6
  1024.6
   690.9
   724.4
   790.8
   505.9
   486.0
   584.8
   418.8
   592.3
   426.5
   459.7
   429.8
   722.3
   706.9
   680.9
   948.7
   920.9
   980.2
  1305.8
  1146.6
  1163.1
  1358.7
  1369.2
  1303.4
  1223.0
  1222.8
  1327.2
  1368.9
  1222.8
  1369.3
  1369.0
  1223.1
  1222.9
  1222.8
  1310.5
  1369.1
  1265.3
  1265.3
  1259.1
  1369.2
  1369.2
  1369.1
  1222.9
  1369.0
  1369.1
  1369.1
  1369.1
  1369.1
  1356.9
  1369.0
  1369.1
  1369.0
  1369.1
  1298.8
  1368.9
  1222.6
  1298.8
  1222.6
  1222.6
  1368.9
  1238.1
  1222.9
  1222.8
  1259.5
  1259.5
  1259.5
  1259.5
  1222.8
  1110.4
  1369.0
   895.2
  1046.1
  1105.4
   629.5
   539.2
   599.7
   360.5
   517.5
   427.9
   482.6
   504.0
   618.7
   619.2
   705.7
   589.5
  1130.0
   870.7
  1369.1
  1222.8
  1357.9
  1222.7
  1368.9
  1369.1
  1368.9
  1369.1
  1222.7
  1369.1
  1369.1
  1259.1
  1222.9
  1259.1
  1259.1
  1369.1
  1369.0
  1369.2
  1222.9
  1369.2
  1222.8
  1369.1
  1222.7
  1369.1
  1369.1
  1222.7
  1369.1
  1222.7
  1369.1
  1222.6
  1222.8
  1298.8
  1298.8
  1241.3
  1368.9
  1241.3
  1222.6
  1238.1
  1369.1
  1344.1
  1222.6
  1369.0
  1344.1
  1222.8
  1148.9
  1001.1
  1128.4
  1158.4
   870.0
   794.4
   817.5
   774.9
   827.9
   676.4
   515.7
   480.5
   588.4
   692.5
   424.4
   642.4
   607.0
   553.9
   635.6
   509.2
   521.6
   586.8
   711.2
   720.6
  1126.8
  1147.2
  1147.3
  1088.4
  1358.4
  1357.3
  1349.1
  1222.7
  1222.7
  1222.7
  1369.1
  1222.9
  1222.9
  1369.1
  1369.0
  1369.1
  1369.1
  1369.1
  1223.0
  1223.0
  1223.0
  1369.1
  1369.1
  1222.9
  1222.9
  1222.9
  1222.9
  1222.9
  1222.8
  1222.7
  1222.7
  1222.7
  1222.7
  1222.6
  1369.1
  1369.0
  1369.1
  1222.6
  1222.6
  1222.6
  1222.6
  1368.9
  1238.1
  1222.6
  1222.6
  1222.6
  1222.7
  1344.1
  1344.1
  1214.1
  1215.9
   980.8
  1185.1
   916.7
   911.3
   801.5
   785.7
   675.3
   812.9
   443.1
   432.0
   503.2
   372.3
   538.2
   494.2
   420.7
   564.9
   457.6
   496.5
   508.4
   434.9
   531.8
   719.0
   645.4
   647.7
   828.3
   919.3
  1056.8
   840.4
   810.4
  1035.4
  1039.4
  1186.6
  1249.5
  1236.3
  1222.7
  1347.1
  1369.1
  1369.2
  1222.7
  1369.1
  1222.7
  1222.8
  1369.0
  1222.7
  1369.1
  1369.1
  1222.8
  1369.1
  1369.1
  1369.1
  1369.1
  1369.1
  1369.1
  1223.0
  1369.3
  1369.1
  1369.2
  1369.1
  1223.0
  1356.3
  1369.0
  1369.0
  1369.0
  1222.8
  1369.0
  1369.1
  1369.2
  1369.1
  1369.2
  1369.1
  1222.6
  1222.6
  1222.6
  1222.6
  1369.1
  1369.1
  1368.9
  1369.1
  1368.9
  1369.0
  1368.9
  1368.9
  1369.1
  1222.7
  1222.8
  1208.1
  1222.7
  1032.3
  1180.5
  1198.5
   645.6
   653.9
   663.9
   689.4
   497.1
   585.5
   548.8
   596.1
   558.9
   492.2
   417.2
   612.6
   596.3
   785.8
   790.6
  1243.8
  1058.5
  1264.1
  1222.7
  1222.7
  1222.7
  1222.7
  1222.7
  1222.7
  1222.8
  1222.7
  1222.8
  1222.8
  1369.1
  1222.8
  1222.8
  1369.1
  1369.1
  1369.1
  1369.1
  1369.2
  1347.1
  1369.3
  1222.9
  1223.0
  1223.0
  1369.1
  1222.8
  1222.8
  1222.8
  1369.1
  1369.0
  1369.1
  1222.9
  1369.1
  1369.1
  1222.8
  1369.1
  1222.8
  1369.1
  1369.1
  1369.1
  1369.1
  1356.1
  1369.1
  1369.1
  1222.8
  1222.8
  1192.0
   981.2
   959.0
   966.6
   518.0
   423.7
   633.8
   435.7
   541.3
   484.4
   316.4
   491.5
   439.1
   399.3
   547.6
   600.9
   658.2
   697.4
   527.2
  1024.5
   978.8
   969.4
   990.9
  1221.5
  1166.7
  1242.8
  1274.5
  1344.8
  1222.9
  1369.1
  1369.1
  1369.1
  1222.9
  1222.7
  1222.8
  1222.7
  1369.0
  1222.7
  1222.8
  1223.0
  1369.1
  1368.9
  1222.8
  1223.0
  1222.8
  1222.8
  1369.1
  1369.1
  1369.1
  1222.9
  1369.2
  1369.2
  1369.1
  1369.2
  1369.2
  1369.2
  1363.6
  1369.1
  1369.1
  1369.1
  1369.1
  1369.1
  1369.1
  1369.1
  1369.1
  1369.1
  1369.1
  1369.1
  1369.1
  1369.1
  1298.4
  1369.1
  1369.1
  1222.8
  1369.1
  1369.1
  1369.1
  1270.7
  1306.6
  1369.1
   835.5
   986.4
  1054.5
  1071.8
   909.8
   483.9
   559.7
   584.4
   417.5
   578.9
   496.6
   585.6
   578.0
   599.6
   660.9
   744.5
   622.8
   749.9
   812.4
   957.8
   763.3
  1053.2
   990.6
  1148.3
  1350.3
  1274.5
  1222.8
  1168.2
  1274.5
  1222.8
  1222.9
  1369.1
  1222.7
  1222.7
  1222.7
  1223.0
  1369.0
  1223.0
  1223.0
  1222.8
  1369.1
  1369.2
  1352.8
  1369.2
  1369.2
  1369.2
  1369.2
  1369.2
  1369.2
  1369.1
  1369.1
  1361.3
  1327.2
  1369.1
  1369.1
  1369.1
  1222.9
  1369.1
  1369.1
  1369.1
  1369.1
  1222.8
  1222.6
  1314.9
  1312.8
  1282.8
  1222.6
  1308.6
  1170.8
  1176.2
  1172.8
   674.1
   692.1
   686.5
   545.7
   702.5
   487.5
   645.6
   711.0
   488.8
   497.3
   552.5
   498.4
   426.0
   389.7
   683.9
   474.0
   515.6
   473.0
   446.5
   530.3
   680.2
   571.1
   646.9
   673.5
   942.7
   848.3
  1165.3
  1089.0
  1222.8
  1222.8
  1222.8
  1222.7
  1369.2
  1369.0
  1369.1
  1369.1
  1369.0
  1222.7
  1222.8
  1368.9
  1325.1
  1222.7
  1222.7
  1222.7
  1222.8
  1369.3
  1369.3
  1369.3
  1222.8
  1222.8
  1222.8
  1222.8
  1222.8
  1369.2
  1369.2
  1369.2
  1312.0
  1222.7
  1369.2
  1369.1
  1369.1
  1369.1
  1312.0
  1369.1
  1222.8
  1222.8
  1369.1
  1327.2
  1327.2
  1327.2
  1369.2
  1222.9
  1222.9
  1222.8
  1222.6
  1222.8
  1282.8
  1231.4
  1110.6
  1313.9
  1113.4
  1132.3
  1091.7
   972.0
   824.2
   866.9
   923.7
  1060.6
   831.1
   540.8
   495.7
   400.3
   454.7
   498.9
   448.2
   545.9
   543.7
   715.6
   828.9
   877.0
   887.6
  1271.6
  1279.0
  1369.1
  1368.1
  1222.7
  1222.7
  1222.7
  1222.7
  1222.7
  1222.8
  1222.8
  1325.1
  1325.1
  1369.3
  1223.0
  1369.1
  1369.2
  1369.2
  1223.0
  1369.1
  1369.2
  1369.1
  1369.1
  1369.2
  1369.2
  1369.2
  1222.7
  1222.7
  1222.7
  1222.8
  1222.8
  1222.8
  1222.8
  1369.0
  1357.3
  1222.9
  1222.9
  1222.9
  1222.8
  1222.8
  1222.8
  1222.8
  1369.2
  1369.2
  1369.2
  1369.2
  1350.8
  1369.2
  1369.2
  1369.1
  1369.1
  1367.9
  1368.9
  1369.1
  1282.8
  1355.6
  1368.0
  1368.8
  1224.4
  1098.3
  1288.8
  1068.6
  1106.1
  1098.9
  1027.6
   864.0
   638.7
   719.1
   695.6
   492.7
   522.0
   543.9
   445.5
   491.7
   767.2
   542.3
   821.8
   715.2
   610.6
   787.5
   856.4
   932.0
   886.8
  1176.4
  1223.0
  1222.9
  1248.3
  1080.9
  1073.8
  1222.8
  1368.2
  1222.9
  1297.2
  1232.6
  1297.2
  1297.2
  1297.2
  1369.1
  1222.8
  1369.1
  1369.2
  1369.1
  1369.2
  1222.9
  1369.2
  1369.3
  1223.0
  1369.2
  1223.0
  1369.1
  1369.2
  1369.2
  1369.2
  1369.2
  1222.9
  1222.9
  1312.0
  1369.2
  1369.0
  1369.0
  1295.9
  1369.1
  1222.7
  1368.9
  1369.0
  1369.2
  1369.2
  1222.7
  1222.9
  1369.1
  1369.2
  1369.2
  1361.3
  1368.1
  1369.1
  1369.1
  1341.9
  1143.1
  1133.2
  1356.9
  1355.8
   944.5
  1109.5
   967.2
  1112.1
   969.6
   893.5
   764.7
   679.9
   737.7
   430.3
   369.8
   470.4
   474.9
   723.9
   664.6
   540.3
   646.0
   547.2
   721.6
   577.0
   772.4
   867.9
   752.0
   800.9
   675.2
  1066.9
  1183.0
  1089.1
  1222.9
  1222.9
  1222.9
  1222.9
  1222.8
  1232.6
  1222.8
  1369.1
  1222.8
  1222.8
  1350.5
  1369.1
  1369.2
  1369.3
  1369.3
  1369.3
  1369.3
  1369.0
  1369.1
  1271.4
  1369.1
  1369.2
  1369.2
  1369.2
  1369.1
  1312.0
  1369.1
  1369.0
  1369.0
  1222.8
  1369.1
  1369.0
  1222.7
  1222.7
  1222.7
  1222.8
  1368.9
  1369.0
  1222.7
  1222.7
  1222.8
  1369.2
  1369.2
  1369.2
  1369.2
  1222.9
  1222.9
  1222.8
  1360.9
  1360.8
   943.4
   867.0
   880.4
   674.2
   693.1
   618.3
   745.9
   676.1
   559.4
   537.7
   555.1
   496.5
   547.1
   295.2
   411.9
   491.4
   396.1
   500.1
   512.3
   446.4
   428.4
   601.8
  1099.7
   987.0
  1113.1
  1223.0
  1223.0
  1223.1
  1369.1
  1369.1
  1222.8
  1369.1
  1315.6
  1222.8
  1369.2
  1369.1
  1333.6
  1350.5
  1369.3
  1369.3
  1369.2
  1369.2
  1369.2
  1369.2
  1369.2
  1369.1
  1369.2
  1369.1
  1222.9
  1222.9
  1344.6
  1369.2
  1369.0
  1369.2
  1369.0
  1369.1
  1369.1
  1369.1
  1369.1
  1222.8
  1369.1
  1222.8
  1222.9
  1222.8
  1222.8
  1222.8
  1353.2
  1369.1
  1309.0
  1369.2
  1353.2
  1369.2
  1309.0
  1369.1
  1369.2
  1222.8
  1369.1
  1261.9
  1222.8
  1142.5
  1134.3
  1185.4
  1222.8
   864.0
   614.8
   664.6
   551.2
   463.5
   568.2
   522.4
   643.8
   531.3
   521.9
   512.8
   478.9
   445.0
   707.7
   862.7
   803.8
   827.0
   620.7
   634.2
   857.7
   809.4
   848.8
  1231.4
  1071.3
  1223.1
  1248.0
  1369.2
  1369.1
  1223.0
  1369.1
  1222.8
  1369.1
  1222.8
  1350.5
  1223.0
  1369.1
  1369.3
  1369.3
  1369.3
  1350.5
  1223.0
  1223.0
  1223.0
  1223.0
  1369.2
  1369.2
  1369.2
  1369.2
  1369.2
  1222.9
  1369.1