# vtk DataFile Version 3.0
divides
ASCII
DATASET UNSTRUCTURED_GRID
POINTS       7418 float
        1759.034        1324.084         361.411
        5796.549        1207.639         383.723
        4522.726        1190.435         348.353
        7788.005        1201.699         406.356
        8170.701        1167.732         343.248
       11193.838        1583.560         385.032
       10763.755         551.806         269.424
       14068.479        1359.565         407.758
       11502.941        1597.116         422.161
       14495.096        1306.444         358.091
       18462.588        1109.736         368.311
       17306.347        1500.697         380.260
       20551.094        1433.481         416.822
       21348.770         582.233         287.928
       20878.040        1417.759         370.027
       25188.289        1048.343         386.130
       23799.755        1336.342         363.216
       26181.818        1034.702         374.182
       27428.803        1193.932         348.531
       29870.297        1364.567         399.875
       30836.969         525.990         262.518
       30113.909        1380.477         369.770
       34414.605        1555.709         402.366
       33436.315        1429.597         373.427
       33062.729         517.535         277.975
       34639.210        1560.019         394.104
       37037.577        1122.152         340.591
       38858.497         531.825         269.184
       38257.804        1285.200         358.286
       37374.092        1116.126         381.500
       40575.554        1141.726         383.789
       41785.277        1427.053         374.420
       43351.743        1295.963         360.303
       45850.824         965.485         336.885
       46675.023        1083.738         337.858
       50628.299         975.534         373.442
       49921.180        1568.492         391.522
       49202.363         695.798         288.809
       51657.723         980.921         383.044
       52920.196        1198.220         349.654
       55475.291        1163.132         390.581
       55861.770        1152.366         344.515
       59053.619        1228.891         354.867
       61876.084        1166.532         393.136
       60546.217        1168.440         350.100
       63568.103        1397.608         414.902
       64444.893         659.387         288.382
       63815.769        1416.255         378.370
       67281.823        1431.947         379.627
       66739.870         599.042         280.497
       67590.008        1429.935         420.808
       70384.678        1607.304         396.980
       69830.505         544.425         286.972
       72150.939        1007.225         326.502
       74714.404        1229.828         401.978
       72618.215        1028.585         378.119
       75661.057         508.811         263.598
       75101.989        1217.587         354.595
       76290.163        1439.209         389.109
       78252.244        1319.014         427.803
       78622.006        1290.372         365.776
       79501.684         658.354         518.150
         843.691        1709.429         462.181
        1583.722        3302.447         498.312
         702.356        2673.823         492.901
        3367.908        1673.177         502.407
        4904.547        2684.957         511.540
        3599.188        2754.199         524.664
        5056.861        1621.788         441.735
        6906.162        2601.334         519.907
        7523.726        1639.784         450.873
        9314.079        3260.755         534.115
        9016.144        1341.570         462.616
       12226.111        1942.632         525.644
       11111.277        2491.095         431.779
       12713.148        2363.199         551.151
        9811.482        3265.508         562.476
       16326.174        1899.904         501.819
       17740.854        1869.987         415.494
       15951.330        2367.722         529.258
       17427.242        2874.449         507.399
       20356.754        1788.605         430.306
       20600.240        3822.909         560.850
       21517.746        2387.355         503.552
       21383.742        1665.759         415.266
       20180.638        2406.722         509.894
       22624.890        2490.656         504.256
       23140.173        1646.804         419.746
       24057.987        4478.997         561.661
       24908.661        2467.633         507.137
       24413.976        1695.885         450.690
       27247.485        2842.916         503.807
       29396.666        1610.864         535.190
       29987.017        2714.710         563.708
       26860.627        1570.059         437.104
       30278.234        2488.326         558.482
       35237.405        1704.620         558.968
       37550.000        1588.300         411.056
       36950.450        2378.135         516.111
       39073.111        1749.270         435.633
       38087.780        4540.913         542.580
       39718.079        3094.702         512.518
       40812.201        2927.039         531.427
       42307.989        3340.813         534.730
       42714.445        2503.624         508.968
       42445.505        1860.218         440.542
       41238.368        1781.237         441.542
       44423.402        1672.156         445.501
       46500.405        2019.949         516.164
       47228.506        1430.089         438.423
       46330.277        1364.700         400.647
       50270.925        1730.938         408.453
       50410.772        2246.159         519.410
       49484.908        1777.896         477.758
       49147.605        2435.510         573.451
       53050.999        2358.392         498.566
       54242.393        1535.502         529.390
       52017.432        2274.117         524.047
       52367.473        1507.684         444.008
       55968.482        3095.825         529.182
       57398.606        1586.402         529.773
       54545.408        2216.501         522.604
       59193.344        2628.613         492.580
       59800.112        1570.786         474.442
       56402.682        3190.785         579.772
       61493.964        2527.705         535.896
       59796.672        2505.213         522.832
       61111.705        1560.824         461.944
       63166.682        2214.174         561.839
       63366.194        1656.263         445.942
       63947.818        2242.044         518.704
       67839.747        2310.788         522.952
       66937.935        2439.778         522.839
       67406.981        3052.394         553.952
       67879.750        1529.165         489.921
       66582.767        2028.205         523.006
       70911.825        1784.057         486.979
       71100.167        2295.066         552.665
       69955.331        2398.640         522.863
       73899.163        1550.740         508.617
       75444.693        2846.265         515.630
       73298.011        2403.184         548.500
       76845.940        1670.983         544.446
       79236.797        1671.631         405.924
       78676.826        2534.298         478.181
         653.219        3778.382         487.109
        4402.962        4290.409         603.765
        3835.054        3241.848         522.998
        2795.533        3529.501         527.037
        5502.900        3285.548         429.843
        5435.789        2899.729         459.512
        6639.966        4233.570         523.010
        6215.563        5913.453         578.491
        9021.023        3512.456         586.210
        5032.462        4382.768         541.392
        7958.844        4830.048         573.859
        9428.427        3862.798         522.927
        9078.107        4108.839         669.191
       10751.036        4096.882         669.378
        9606.807        3275.803         514.196
       13298.839        2840.484         523.168
       15112.947        5200.229         565.814
       16483.678        3266.553         550.158
       14298.024        4105.219         522.837
       11878.065        4193.700         582.016
       15583.423        5281.956         596.033
       17762.550        4386.079         539.186
       17883.208        3108.208         455.179
       21707.041        4318.844         549.436
       23774.624        4570.020         579.657
       21019.085        4137.788         554.842
       26934.692        4143.435         559.908
       26843.214        3053.691         535.744
       24365.593        4545.131         567.464
       27031.785        2933.972         490.796
       28783.839        2997.933         668.980
       27213.496        3769.148         654.570
       31685.533        4112.148         669.012
       30835.063        2883.802         576.630
       30457.744        2627.256         505.505
       30583.851        2707.926         506.146
       33742.256        4420.379         553.131
       33888.160        2577.672         500.962
       32398.190        4249.979         552.085
       33082.772        2347.937         433.489
       35447.916        2647.370         557.047
       35278.952        4456.866         577.197
       35268.622        2211.682         568.994
       41703.974        3801.157         563.854
       40191.364        4233.521         522.968
       41193.818        4262.820         552.137
       38568.179        4700.462         581.048
       44632.245        4696.841         551.175
       45069.728        2959.799         535.442
       44177.546        2612.314         490.345
       46790.023        2473.017         490.369
       47830.345        4135.693         571.080
       45094.137        4639.558         573.144
       47473.492        3048.736         540.435
       49156.893        3094.782         564.071
       48165.793        4011.837         555.725
       51161.338        4718.006         555.630
[...]
POINT_DATA       7418
SCALARS height float 1
LOOKUP_TABLE default
   361.4
   383.7
   348.4
   406.4
   343.2
   385.0
   269.4
   407.8
   422.2
   358.1
   368.3
   380.3
   416.8
   287.9
   370.0
   386.1
   363.2
   374.2
   348.5
   399.9
   262.5
   369.8
   402.4
   373.4
   278.0
   394.1
   340.6
   269.2
   358.3
   381.5
   383.8
   374.4
   360.3
   336.9
   337.9
   373.4
   391.5
   288.8
   383.0
   349.7
   390.6
   344.5
   354.9
   393.1
   350.1
   414.9
   288.4
   378.4
   379.6
   280.5
   420.8
   397.0
   287.0
   326.5
   402.0
   378.1
   263.6
   354.6
   389.1
   427.8
   365.8
   518.2
   462.2
   498.3
   492.9
   502.4
   511.5
   524.7
   441.7
   519.9
   450.9
   534.1
   462.6
   525.6
   431.8
   551.2
   562.5
   501.8
   415.5
   529.3
   507.4
   430.3
   560.8
   503.6
   415.3
   509.9
   504.3
   419.7
   561.7
   507.1
   450.7
   503.8
   535.2
   563.7
   437.1
   558.5
   559.0
   411.1
   516.1
   435.6
   542.6
   512.5
   531.4
   534.7
   509.0
   440.5
   441.5
   445.5
   516.2
   438.4
   400.6
   408.5
   519.4
   477.8
   573.5
   498.6
   529.4
   524.0
   444.0
   529.2
   529.8
   522.6
   492.6
   474.4
   579.8
   535.9
   522.8
   461.9
   561.8
   445.9
   518.7
   523.0
   522.8
   554.0
   489.9
   523.0
   487.0
   552.7
   522.9
   508.6
   515.6
   548.5
   544.4
   405.9
   478.2
   487.1
   603.8
   523.0
   527.0
   429.8
   459.5
   523.0
   578.5
   586.2
   541.4
   573.9
   522.9
   669.2
   669.4
   514.2
   523.2
   565.8
   550.2
   522.8
   582.0
   596.0
   539.2
   455.2
   549.4
   579.7
   554.8
   559.9
   535.7
   567.5
   490.8
   669.0
   654.6
   669.0
   576.6
   505.5
   506.1
   553.1
   501.0
   552.1
   433.5
   557.0
   577.2
   569.0
   563.9
   523.0
   552.1
   581.0
   551.2
   535.4
   490.3
   490.4
   571.1
   573.1
   540.4
   564.1
   555.7
   555.6
   587.1
   522.6
   522.5
   522.5
   522.5
   522.8
   522.8
   522.8
   522.8
   545.1
   523.0
   604.9
   522.9
   522.8
   495.0
   522.9
   669.0
   522.9
   522.6
   522.9
   504.6
   599.9
   604.6
   522.7
   572.8
   669.3
   593.2
   565.2
   414.8
   436.6
   555.3
   429.7
   221.5
   523.0
   451.5
   571.5
   609.9
   669.3
   571.8
   522.9
   522.9
   522.7
   522.9
   522.8
   565.5
   572.6
   589.6
   600.2
   576.5
   523.2
   669.2
   629.8
   523.2
   523.2
   669.1
   522.7
   522.7
   522.7
   669.1
   669.3
   669.1
   646.1
   600.0
   669.2
   640.6
   598.1
   522.9
   594.2
   523.0
   637.7
   522.9
   602.8
   668.9
   669.0
   669.0
   669.0
   522.6
   522.8
   522.6
   522.7
   565.7
   565.7
   565.7
   565.7
   669.0
   669.1
   522.7
   522.7
   669.2
   522.6
   669.2
   522.6
   522.6
   522.6
   523.1
   523.1
   474.9
   493.3
   426.7
   548.7
   669.2
   669.3
   582.9
   522.9
   522.9
   522.7
   669.1
   669.1
   669.1
   669.2
   669.3
   669.0
   669.1
   669.3
   669.3
   669.2
   631.3
   669.3
   523.1
   622.2
   523.2
   523.2
   523.1
   669.1
   523.1
   669.0
   669.0
   524.8
   669.0
   669.3
   669.0
   523.0
   669.1
   669.1
   522.9
   522.9
   522.9
   522.9
   668.9
   669.1
   600.5
   668.9
   522.7
   522.7
   522.7
   522.7
   522.7
   522.7
   669.1
   669.0
   669.0
   669.1
   669.2
   669.0
   669.0
   669.2
   669.0
   669.2
   669.2
   669.2
   669.2
   669.0
   669.2
   669.1
   523.0
   669.2
   669.1
   627.4
   669.1
   574.7
   566.7
   523.0
   439.3
   499.9
   525.7
   422.6
   514.2
   493.5
   606.0
   607.7
   584.2
   669.2
   669.2
   522.9
   522.9
   522.7
   669.1
   669.2
   669.1
   669.0
   669.1
   669.1
   669.1
   523.0
   523.0
   523.0
   523.0
   523.1
   523.1
   523.1
   669.0
   524.8
   669.2
   523.2
   523.2
   524.8
   669.0
   669.1
   669.1
   669.3
   669.0
   669.0
   669.1
   669.2
   522.7
   669.1
   522.7
   522.7
   522.6
   668.9
   522.6
   669.0
   668.9
   669.0
   669.0
   522.6
   669.1
   669.2
   669.1
   669.1
   669.1
   669.1
   669.1
   669.1
   669.1
   669.3
   669.2
   669.2
   669.3
   669.2
   640.3
   669.3
   669.2
   669.4
   669.4
   669.1
   523.0
   523.0
   523.0
   544.4
   596.5
   518.2
   579.0
   446.6
   426.7
   425.1
   463.9
   528.8
   452.9
   483.3
   669.0
   522.7
   669.2
   613.2
   669.2
   669.1
   522.7
   522.7
   522.7
   669.1
   596.2
   669.1
   669.3
   669.3
   669.2
   669.3
   669.2
   522.9
   522.9
   522.9
   669.0
   669.0
   669.0
   669.0
   669.0
   669.0
   669.0
   623.7
   669.1
   669.1
   669.0
   566.0
   522.8
   522.8
   522.8
   522.7
   668.9
   669.0
   669.0
   669.0
   669.0
   669.0
   522.6
   522.8
   522.8
   669.1
   669.1
   669.2
   522.8
   669.1
   522.8
   669.3
   522.8
   669.2
   669.3
   669.2
   522.8
   522.9
   522.9
   669.3
   669.2
   669.2
   669.2
   669.1
   496.3
   501.5
   529.3
   495.7
   575.2
   573.4
   559.1
   618.1
   666.8
   522.7
   669.0
   522.7
   522.8
   522.7
   531.8
   669.1
   522.8
   522.8
   522.8
   522.8
   522.7
   669.2
   669.2
   669.2
   669.1
   669.1
   548.6
   669.2
   522.9
   669.2
   669.2
   645.1
   669.2
   522.8
   669.1
   669.2
   669.0
   669.0
   669.1
   611.8
   669.1
   522.8
   566.0
   566.0
   566.0
   669.2
   522.7
   522.8
   669.1
   669.1
   669.1
   522.7
   669.1
   669.3
   669.2
   669.0
   669.1
   669.1
   669.1
   669.1
   522.8
   669.1
   522.8
   522.8
   669.0
   669.2
   669.2
   669.1
   669.2
   669.1
   522.9
   522.9
   669.1
   669.1
   602.3
   573.5
   669.0
   472.3
   502.9
   545.2
   271.3
   488.3
   567.4
   546.6
   669.0
   590.0
   618.2
   669.0
   666.8
   666.8
   522.8
   522.8
   531.8
   531.8
   531.8
   522.7
   669.1
   598.1
   669.2
   522.7
   548.6
   669.1
   620.0
   522.5
   522.8
   669.1
   522.8
   522.5
   611.8
   611.8
   611.8
   669.1
   669.1
   669.2
   669.1
   669.0
   669.3
   669.0
   669.1
   523.0
   669.1
   522.8
   669.0
   669.1
   669.0
   669.1
   522.7
   522.7
   522.7
   522.8
   669.1
   669.2
   669.1
   522.8
   669.1
   669.2
   669.1
   669.2
   669.2
   669.2
   669.2
   669.1
   669.1
   669.1
   669.2
   669.1
   621.4
   669.0
   522.8
   522.8
   522.8
   522.8
   490.1
   357.3
   404.3
   463.6
   452.8
   455.2
   512.1
   602.2
   488.2
   583.8
   669.0
   669.1
   669.1
   669.1
   669.2
   669.1
   669.1
   522.8
   522.7
   669.1
   522.7
   522.7
   669.2
   548.6
   669.2
   669.3
   522.9
   561.3
   522.5
   669.2
   522.5
   522.6
   522.8
   669.0
   522.8
   669.1
   669.0
   522.8
   522.7
   522.8
   669.1
   522.8
   669.1
   669.1
   522.8
   669.0
   669.1
   669.0
   669.0
   669.0
   522.8
   522.8
   522.8
   522.8
   669.1
   669.1
   669.3
   669.2
   669.0
   669.0
   669.1
   666.0
   669.0
   669.0
   669.0
   669.2
   669.0
   522.7
   669.1
   552.4
   522.7
   480.7
   465.8
   523.0
   482.5
   586.9
   577.9
   537.7
   669.1
   669.1
   669.0
   522.8
   669.0
   669.1
   669.1
   669.1
   522.8
   522.7
   522.7
   522.7
   522.7
   669.2
   669.2
   669.2
   669.1
   548.6
   669.2
   522.9
   669.1
   620.0
   522.9
   522.9
   522.9
   669.1
   669.1
   669.1
   669.0
   651.7
   522.8
   522.8
   566.0
   527.6
   522.8
   522.7
   522.8
   522.8
   522.8
   669.1
   669.2
   522.8
   669.0
   669.0
   669.1
   669.2
   669.1
   669.1
   663.4
   669.1
   522.8
   669.0
   669.1
   669.0
   522.8
   669.0
   669.0
   669.0
   669.0
   522.7
   522.7
   522.8
   522.7
   522.8
   468.4
   446.7
   535.6
   522.5
   343.5
   448.0
   420.0
   509.0
   563.8
   522.9
   669.2
   522.9
   669.3
   522.8
   522.9
   522.8
   522.8
   522.8
   669.1
   669.1
   669.1
   669.2
   669.1
   669.2
   669.1
   669.2
   669.2
   669.1
   636.6
   669.0
   669.1
   669.1
   522.8
   669.0
   669.0
   669.0
   522.8
   522.7
   522.8
   669.1
   542.3
   669.1
   522.7
   669.1
   669.0
   669.0
   669.0
   522.8
   669.0
   669.1
   669.0
   669.0
   669.1
   522.8
   522.8
   522.8
   522.8
   669.1
   623.3
   669.1
   522.8
   522.7
   669.2
   669.1
   669.2
   669.1
   669.0
   621.9
   522.7
   520.6
   497.6
   424.0
   515.4
   522.9
   523.0
   522.9
   522.9
   522.9
   523.0
   522.9
   522.9
   669.3
   669.3
   669.1
   669.1
   669.1
   669.1
   669.1
   669.1
   669.2
   669.1
   669.1
   669.2
   669.1
   669.1
   669.1
   669.2
   669.1
   669.1
   669.1
   669.0
   522.7
   522.8
   522.8
   522.8
   527.6
   522.9
   669.0
   566.0
   669.1
   522.7
   522.7
   522.7
   522.7
   522.6
   522.8
   669.2
   522.8
   522.8
   669.0
   669.0
   669.0
   669.0
   669.0
   669.1
   522.7
   669.1
   623.3
   623.3
   623.9
   669.2
   669.1
   522.7
   522.7
   619.8
   669.1
   565.4
   469.4
   525.7
   523.0
   440.4
   531.5
   473.6
   555.1
   563.8
   571.5
   669.2
   669.3
   669.3
   669.3
   669.3
   669.2
   669.3
   669.3
   531.7
   669.1
   522.8
   669.1
   562.0
   669.2
   669.1
   522.9
   669.1
   522.9
   522.9
   593.6
   669.1
   669.0
   522.7
   669.1
   522.7
   522.7
   669.1
   669.2
   669.2
   669.1
   591.3
   522.9
   566.0
   522.6
   522.6
   522.8
   522.8
   522.6
   522.8
   669.0
   669.0
   522.9
   668.9
   522.7
   669.0
   522.7
   522.7
   522.7
   669.3
   669.3
   668.9
   669.2
   623.9
   669.2
   522.8
   623.9
   522.8
   522.8
   669.1
   669.1
   669.1
   669.3
   523.0
   669.3
   669.1
   523.1
   523.1
   523.0
   474.1
   485.2
   441.5
   289.7
   454.1
   509.9
   538.2
   426.4
   432.3
   669.3
   669.3
   569.0
   669.2
   669.3
   669.3
   522.9
   669.3
   669.3
   669.2
   669.1
   669.2
   522.8
   669.1
   669.2
   669.2
   540.6
   669.1
   669.1
   669.1
   669.1
   669.1
   669.3
   669.0
   669.1
   669.2
   669.1
   669.1
   669.3
   522.7
   522.6
   522.6
   522.6
   522.7
   522.6
   522.6
   522.6
   522.6
   669.2
   522.9
   669.1
   522.8
   522.6
   668.9
   522.9
   668.9
   669.0
   669.0
   522.8
   623.9
   522.8
   669.1
   522.8
   643.5
   668.6
   669.1
   669.1
   669.1
   669.1
   669.1
   669.1
   669.3
   669.2
   669.1
   576.0
   469.7
   528.1
   469.2
   470.8
   523.1
   513.7
   523.1
   523.2
   523.1
   669.2
   669.3
   667.5
   522.9
   669.0
   669.3
   598.5
   523.0
   669.2
   562.0
   531.8
   669.1
   523.0
   669.2
   668.9
   669.1
   668.9
   523.0
   669.1
   669.2
   669.1
   523.0
   669.1
   669.1
   669.3
   522.8
   669.2
   669.1
   669.2
   639.8
   669.1
   669.2
   669.3
   669.0
   522.8
   522.7
   522.7
   522.7
   669.1
   669.1
   522.8
   669.1
   669.1
   522.8
   522.8
   522.8
   669.2
   669.0
   522.6
   574.0
   668.9
   522.6
   669.0
   522.9
   669.0
   623.5
   522.6
   522.8
   623.5
   669.1
   669.2
   669.2
   669.1
   522.8
   669.1
   669.2
   522.8
   511.1
   479.3
   513.9
   379.2
   510.2
   432.7
   451.7
   483.4
   573.9
   579.5
   523.0
   618.1
   669.2
   523.0
   669.1
   522.8
   669.2
   669.1
   669.3
   669.0
   523.0
   522.9
   669.1
   669.0
   522.8
   669.4
   669.0
   523.0
   522.8
   522.8
   669.1
   669.1
   639.8
   639.8
   622.8
   669.3
   669.2
   669.1
   522.8
   669.0
   669.1
   669.0
   669.1
   669.1
   656.9
   669.1
   669.1
   669.0
   669.0
   669.0
   668.9
   522.6
   669.0
   522.6
   522.6
   669.0
   565.1
   522.9
   522.8
   623.5
   623.5
   623.5
   623.5
   522.9
   669.1
   669.1
   522.8
   522.8
   522.8
   614.1
   669.0
   550.2
   669.1
   527.8
   543.6
   392.8
   509.3
   460.1
   476.3
   523.0
   523.0
   523.0
   523.0
   522.8
   669.3
   669.0
   669.1
   522.8
   669.0
   522.7
   668.9
   669.1
   668.9
   669.1
   522.7
   669.1
   669.1
   622.8
   522.8
   622.8
   622.8
   669.2
   669.1
   669.2
   522.9
   669.2
   522.7
   669.3
   522.7
   669.2
   669.1
   522.7
   669.1
   522.7
   669.1
   522.6
   522.7
   669.0
   669.0
   574.0
   668.9
   574.0
   522.6
   565.1
   669.0
   669.1
   522.6
   669.1
   669.1
   522.8
   522.8
   522.7
   522.8
   522.8
   522.8
   669.0
   669.1
   522.7
   616.9
   536.3
   481.0
   599.9
   431.0
   517.0
   567.1
   465.5
   582.5
   570.2
   583.8
   669.0
   669.0
   624.8
   522.8
   522.8
   669.1
   669.1
   669.1
   522.7
   522.7
   522.7
   669.1
   522.8
   522.8
   669.2
   669.1
   669.2
   669.1
   669.1
   523.0
   523.0
   523.0
   669.1
   669.2
   522.9
   522.9
   522.9
   522.9
   522.8
   522.7
   522.7
   522.7
   522.7
   522.7
   522.6
   669.1
   669.1
   669.2
   522.6
   522.6
   522.6
   522.6
   668.9
   565.1
   522.6
   522.6
   522.6
   522.7
   669.0
   669.0
   669.0
   669.0
   669.0
   522.7
   522.7
   522.7
   585.0
   564.2
   669.2
   443.8
   450.7
   496.8
   517.2
   391.1
   461.5
   444.3
   459.9
   453.9
   546.2
   548.4
   625.4
   669.0
   669.1
   603.1
   669.0
   669.0
   669.0
   669.1
   669.0
   522.7
   669.0
   669.1
   669.2
   522.7
   669.1
   522.7
   522.7
   669.1
   522.7
   669.1
   669.2
   522.7
   669.2
   669.1
   669.2
   669.1
   669.1
   669.2
   523.0
   669.3
   669.1
   669.3
   669.0
   523.0
   656.3
   669.1
   669.0
   669.0
   522.8
   669.0
   669.0
   669.2
   669.1
   669.3
   669.1
   522.6
   522.6
   522.6
   522.6
   669.1
   669.1
   668.9
   669.1
   669.0
   669.0
   668.9
   669.0
   669.1
   522.8
   522.7
   522.7
   522.7
   522.7
   538.8
   522.8
   522.7
   669.0
   522.7
   564.2
   526.7
   522.7
   492.8
   495.9
   540.5
   522.8
   591.5
   574.8
   587.6
   669.0
   669.1
   669.0
   522.8
   669.0
   522.7
   522.7
   522.7
   522.7
   522.7
   522.7
   522.7
   522.7
   522.7
   522.7
   669.1
   522.8
   522.8
   669.1
   669.0
   669.1
   669.1
   669.1
   647.1
   669.3
   522.8
   523.0
   523.0
   669.0
   522.8
   522.8
   522.8
   669.1
   669.1
   669.2
   522.9
   669.0
   669.1
   522.8
   669.1
   522.8
   669.1
   669.1
   669.1
   669.2
   656.1
   669.1
   669.1
   522.7
   522.7
   522.7
   522.7
   522.8
   522.8
   548.7
   416.2
   496.0
   478.8
   303.5
   446.7
   439.7
   413.0
   518.3
   563.9
   522.8
   564.7
   522.8
   522.7
   669.1
   669.1
   522.8
   669.1
   522.8
   522.8
   664.7
   669.1
   522.9
   669.2
   669.2
   669.2
   522.9
   522.7
   522.8
   522.6
   669.1
   522.7
   522.8
   523.0
   669.1
   669.0
   522.8
   523.0
   522.8
   669.1
   669.1
   669.1
   669.0
   522.9
   669.2
   669.2
   669.1
   669.1
   669.2
   669.2
   663.6
   669.1
   669.1
   669.1
   669.2
   669.2
   669.1
   669.3
   669.1
   669.1
   669.1
   669.1
   669.0
   669.1
   598.4
   669.1
   669.0
   522.8
   669.1
   669.2
   669.2
   556.3
   669.2
   669.1
   538.8
   669.2
   669.1
   669.2
   522.4
   522.7
   522.7
   669.1
   561.0
   466.5
   539.7
   550.0
   549.6
   574.6
   517.2
   522.7
   522.7
   522.8
   664.7
   669.1
   669.1
   669.0
   669.2
   669.2
   664.7
   522.8
   669.3
   664.7
   522.8
   522.9
   669.1
   522.7
   522.7
   522.7
   523.0
   669.1
   523.0
   523.0
   522.8
   669.3
   669.2
   652.8
   669.1
   669.2
   669.2
   669.3
   669.3
   669.2
   669.3
   669.2
   661.4
   669.1
   669.2
   669.1
   669.1
   522.9
   669.2
   669.1
   669.1
   669.1
   522.8
   522.6
   669.2
   522.9
   668.8
   522.6
   605.3
   538.8
   669.1
   605.3
   669.0
   669.1
   522.8
   669.1
   522.7
   522.7
   549.8
   547.1
   497.3
   480.0
   518.8
   464.8
   342.1
   551.5
   457.4
   417.7
   531.0
   551.4
   522.8
   669.2
   522.9
   669.2
   522.8
   522.8
   522.8
   522.7
   669.1
   669.0
   669.1
   669.2
   669.1
   522.7
   522.8
   669.0
   669.1
   522.6
   522.6
   522.6
   522.6
   669.3
   669.3
   669.3
   522.8
   522.8
   522.8
   522.8
   669.2
   669.2
   669.1
   522.7
   669.2
   669.1
   669.1
   669.3
   669.0
   669.2
   522.8
   522.8
   669.1
   669.1
   669.1
   669.1
   669.1
   522.9
   522.9
   522.8
   522.6
   522.8
   522.9
   522.9
   669.1
   669.1
   669.1
   669.0
   522.8
   522.8
   516.1
   457.8
   508.9
   463.0
   527.0
   588.5
   522.9
   522.8
   522.8
   669.0
   669.0
   669.1
   669.1
   669.1
   669.2
   669.2
   669.1
   669.1
   522.7
   522.7
   522.7
   522.7
   522.7
   522.8
   522.8
   669.2
   669.2
   669.4
   523.0
   669.1
   669.1
   669.4
   523.0
   669.1
   669.3
   669.2
   669.2
   669.3
   669.2
   669.3
   522.7
   522.7
   522.7
   522.8
   522.8
   522.8
   522.9
   669.0
   657.3
   522.9
   522.9
   522.9
   522.8
   522.8
   522.8
   522.8
   669.1
   669.2
   669.2
   669.2
   650.8
   669.2
   669.2
   669.2
   669.2
   669.2
   668.9
   669.2
   668.8
   668.9
   668.9
   668.8
   639.2
   595.7
   523.0
   669.2
   669.1
   669.2
   669.0
   669.0
   508.0
   522.7
   539.2
   484.2
   481.6
   587.1
   560.7
   669.1
   669.1
   669.1
   522.8
   669.0
   669.1
   523.0
   669.2
   522.9
   522.8
   669.2
   669.1
   549.7
   669.1
   669.1
   669.1
   669.1
   522.8
   669.2
   669.2
   669.1
   669.2
   522.9
   669.2
   669.2
   523.0
   669.2
   523.0
   669.1
   669.2
   669.2
   669.2
   669.2
   522.9
   522.9
   669.1
   669.2
   669.0
   669.0
   595.9
   669.2
   522.7
   669.1
   668.9
   669.2
   669.2
   522.7
   522.9
   669.1
   669.2
   669.2
   669.1
   669.2
   669.1
   669.1
   647.2
   669.1
   669.0
   668.9
   669.0
   523.0
   669.2
   668.8
   669.1
   669.0
   523.0
   573.3
   563.4
   473.5
   487.4
   390.8
   444.3
   591.7
   551.6
   476.4
   597.1
   669.1
   522.7
   522.8
   523.0
   522.8
   522.9
   522.9
   522.9
   522.9
   522.8
   549.7
   522.8
   669.1
   522.8
   522.8
   669.1
   669.1
   669.2
   669.2
   669.3
   669.2
   669.3
   669.0
   669.1
   571.3
   669.1
   669.2
   669.2
   669.2
   669.2
   669.0
   669.2
   669.0
   669.2
   522.8
   669.1
   669.0
   522.8
   522.7
   522.7
   522.7
   669.0
   669.1
   522.7
   522.7
   522.7
   669.2
   669.2
   669.2
   669.2
   522.9
   522.9
   522.8
   669.1
   669.1
   522.9
   522.8
   522.9
   669.3
   523.0
   523.0
   594.4
   570.9
   617.5
   487.2
   526.5
   489.7
   521.1
   300.7
   447.4
   458.6
   424.5
   461.1
   456.7
   522.8
   483.1
   522.7
   522.8
   522.7
   522.8
   522.8
   522.8
   523.0
   523.0
   669.2
   669.2
   522.8
   669.1
   669.1
   522.8
   669.3
   669.2
   633.6
   668.8
   669.3
   669.3
   669.2
   669.1
   669.1
   669.2
   669.1
   669.1
   669.1
   669.2
   522.9
   522.9
   644.6
   669.3
   669.1
   669.1
   669.2
   669.2
   669.1
   669.1
   669.1
   522.8
   669.1
   522.7
   522.9
   522.7
   522.7
   522.7
   669.1
   669.0
   669.1
   669.1
   669.1
   669.2
   669.1
   669.2
   669.3
   522.8
   669.2
   522.9
   522.8
   522.8
   522.9
   522.9
   634.2
   522.8
   636.2
   575.4
   608.5
   414.3
   560.3
   441.7
   584.4
   557.8
   502.3
   522.5
   668.9
   522.7
   522.7
   669.3
   523.0
   669.3
   669.2
   669.2
   523.0
   669.2
   522.8
   669.2
   522.8
   669.1
   523.0
   669.1
   669.3
   669.4
   669.3
   669.2
   523.0
   523.0
   523.0
   523.0
   669.1
   669.1
   669.2
   669.1
   669.1
   522.9
   669.1
   669.2
   669.2
   522.8
   669.1
   669.2
   522.9
   669.1
   669.0
   669.0
   522.8
   522.9
   522.9
   522.9
   669.1
   669.1
   596.1
   522.8
   522.8
   652.6
   669.1
   669.2
   669.1
   669.1
   522.8
   522.8
   522.8
   669.1
   522.8
   669.1
   522.8
   522.8
   522.8
   522.8
   626.9
   563.4
   522.8
   425.1
   496.0
   458.2
   369.4
   467.0
   474.5
   526.9
   430.5
   669.1
   522.5
   568.6
   668.9
   669.0
   522.5
   669.3
   669.3
   523.0
   523.0
   538.9
   522.8
   669.2
   669.2
   617.8
   617.8
   538.9
   669.1
   669.1
   669.1
   669.2
   523.0
   635.2
   523.0
   523.0
   669.1
   669.3
   669.3
   669.2
   669.2
   669.3
   522.9
   522.7
   669.1
   669.1
   522.9
   669.1
   669.1
   522.8
   522.8
   669.0
   669.0
   522.8
   522.8
   522.8
   669.1
   669.1
   669.1
   669.1
   669.2
   668.8
   669.2
   669.1
   669.1
   523.0
   669.3
   522.7
   669.2
   655.0
   522.7
   669.2
   669.2
   668.9
   669.1
   522.8
   669.3
   669.0
   669.1
   669.1
   656.0
   669.0