# vtk DataFile Version 3.0
divides
ASCII
DATASET UNSTRUCTURED_GRID
POINTS       8506 float
        1764.552        1370.031         367.395
        5687.825        1075.885         368.141
        4505.262        1265.414         357.837
        7834.579        1242.022         412.379
        8179.078        1225.034         350.678
       11194.520        1408.319         369.106
       10797.829         508.706         248.951
       13881.458        1159.114         385.879
       11619.176        1453.992         409.726
       14484.751        1164.323         342.126
       18384.954        1009.858         355.093
       17243.581        1821.460         408.371
       20668.727        1558.287         429.628
       21382.930         618.477         296.660
       20886.988        1580.329         386.163
       25031.375         909.909         365.918
       23790.242        1399.829         369.984
       26305.491         909.023         355.868
       27443.215        1269.138         357.733
       29992.173        1519.952         415.712
       30935.397         644.470         294.697
       34387.859        1504.630         398.322
       33463.745        1190.029         347.352
       33109.040         472.924         261.700
       36940.501        1296.368         434.236
       34658.428        1506.558         389.735
       38836.820         506.681         256.822
       38269.491        1179.571         346.244
       37185.580        1321.216         406.962
       40733.335         965.883         359.810
       41821.751        1707.984         401.523
       43335.336        1155.832         344.007
       45890.605         895.545         326.145
       47649.062        1185.047         402.427
       48996.867         917.479         367.442
       50470.925         826.235         349.479
       49928.440        1603.946         395.831
       51840.282         824.150         357.916
       52904.795        1044.685         329.777
       55449.617        1135.361         387.771
       55865.905        1117.895         340.518
       59085.611         960.315         318.202
       61902.327        1194.981         398.620
       60505.114        1357.678         374.396
       63565.577        1394.585         416.813
       64348.314         516.244         239.077
       63816.155        1413.290         380.011
       67268.798        1204.009         354.633
       66790.953         532.538         257.789
       67747.259        1244.101         401.622
       70383.761        1703.489         408.447
       69908.184         470.165         261.204
       72135.624         905.027         310.756
       74672.229        1183.285         398.504
       72697.796         945.211         366.949
       75644.898         490.979         254.359
       75106.571        1160.664         348.935
       76244.711        1567.517         405.458
       78340.850        1399.491         440.933
       78641.212        1402.008         381.362
       79475.055         693.535         602.391
         869.070        1712.721         495.256
        1605.521        3167.465         537.822
         732.398        2651.317         538.813
        3392.111        1670.628         557.575
        4839.631        2529.021         557.497
        3488.460        2912.038         610.518
        4918.538        1608.155         427.321
        7688.407        2871.277         562.239
        9095.272        1913.311         512.644
        7434.786        2196.445         522.693
        7644.887        1630.574         436.637
        9147.213        3002.526         584.995
        8853.451        1392.265         460.601
       12443.717        1934.845         492.375
       12626.040        2341.229         513.486
       10603.219        2154.489         385.673
       16867.013        1911.956         507.033
       17376.135        1905.242         428.432
       16825.429        2060.235         532.163
       17335.626        2443.504         575.328
       20564.153        1794.053         429.290
       20796.798        2494.947         569.197
       21408.939        2284.530         569.536
       21266.178        1699.025         447.005
       20492.999        2144.232         504.365
       24324.403        2132.812         479.796
       22663.536        2466.286         556.072
       23168.226        1653.739         440.068
       24279.517        1715.002         429.953
       27291.021        2635.136         544.312
       29427.033        1610.987         615.190
       29094.045        2314.461         603.572
       27016.685        1578.062         415.718
       30326.292        1687.785         474.058
       30375.026        1346.177         526.997
       30174.234        2060.475         546.555
       32108.586        1996.868         409.592
       36284.125        1541.723         643.839
       37234.343        1466.738         413.631
       37040.427        1796.770         506.483
       39034.913        1753.109         386.109
       38078.384        4774.106         556.138
       39277.700        2730.747         455.528
       41540.390        2168.766         510.827
       41991.652        2334.994         537.098
       42167.697        2098.132         500.421
       42071.117        1857.480         432.661
       41617.231        1828.116         430.781
       44532.696        1650.925         408.613
       49479.619        1368.169         567.069
       50223.463        2067.896         438.339
       49451.819        1774.279         508.737
       48784.802        2700.369         658.782
       54587.191        1534.720         521.544
       52221.495        2113.876         446.327
       52302.478        1504.279         389.930
       56936.435        3003.718         574.165
       56793.396        1565.569         492.128
       54153.307        2427.717         576.887
       60232.462        1532.265         406.435
       58009.058        3440.784         481.349
       61347.172        2381.684         647.620
       60229.997        1867.071         479.443
       60990.500        1551.375         513.907
       62812.924        2533.466         628.943
       63301.625        1656.221         471.130
       63877.480        1989.857         418.604
       68203.663        1949.179         443.325
       68119.776        1428.737         438.309
       69998.317        2350.405         546.467
       70767.718        1821.070         478.247
       70863.755        2171.722         533.986
       70152.271        1970.036         415.381
       73970.542        1555.066         501.499
       73803.203        3756.321         611.762
       73707.190        2222.664         542.425
       76931.088        1673.347         641.889
       79212.817        1673.881         455.796
       78679.902        2406.237         519.198
         662.189        3786.325         504.460
        4251.783        4146.641         795.319
        3678.722        3234.968         622.795
        3011.950        3388.349         587.715
        5645.988        4181.018         578.659
        5427.278        3288.782         371.117
        8996.232        5662.040         720.527
       10708.805        4078.477         668.203
       10000.600        3324.448         543.600
        8859.641        3726.164         589.083
       10613.084        2585.867         410.651
       12159.250        2840.248         537.497
       16852.765        3350.278         529.430
       11878.725        4193.373         566.445
       17688.472        4061.938         473.111
       16354.540        3793.953         589.822
       17864.572        3131.641         442.505
       22486.463        4538.825         648.726
       21845.406        3690.296         568.444
       23491.933        3315.055         634.981
       21607.524        3396.059         537.983
       23982.684        3415.521         499.498
       26915.381        3064.712         466.722
       28555.610        4323.404         725.184
       28127.999        3042.865         657.625
       27210.116        3664.261         573.288
       30876.864        3356.981         518.692
       30035.984        4415.410         615.856
       28707.882        4438.386         658.744
       34023.397        2520.657         375.502
       32109.314        2327.480         424.187
       35485.909        2659.307         517.484
       35245.199        2198.672         549.390
       41406.905        4427.439         478.357
       41550.057        3772.120         464.851
       38269.892        4910.464         544.096
       43036.360        4500.628         478.245
       45112.296        2955.048         486.900
       44473.900        2365.666         450.108
       46460.790        4506.863         539.907
       47758.155        3098.670         528.754
       47167.688        2232.482         485.690
       44963.786        4847.381         584.067
       47842.000        3294.677         504.245
       48560.312        3137.229         537.032
       48162.320        3863.429         645.124
       48465.632        4274.069         556.833
       52585.656        2973.933         453.707
       55490.689        3350.457         662.780
       52472.406        3693.770         554.024
       56316.175        3536.540         592.233
       54798.425        4274.122         801.513
       56142.791        4055.934         710.911
       61607.682        3167.823         527.277
       62253.783        3581.853         500.079
       62546.859        3102.224         492.227
       61546.951        3536.740         594.614
       65498.770        4131.681         511.892
       65847.595        3133.136         503.512
       67097.612        3665.179         683.171
       67423.647        3447.318         534.747
       67471.602        3429.138         543.112
[...]
POINT_DATA       8506
SCALARS height float 1
LOOKUP_TABLE default
   367.4
   368.1
   357.8
   412.4
   350.7
   369.1
   249.0
   385.9
   409.7
   342.1
   355.1
   408.4
   429.6
   296.7
   386.2
   365.9
   370.0
   355.9
   357.7
   415.7
   294.7
   398.3
   347.4
   261.7
   434.2
   389.7
   256.8
   346.2
   407.0
   359.8
   401.5
   344.0
   326.1
   402.4
   367.4
   349.5
   395.8
   357.9
   329.8
   387.8
   340.5
   318.2
   398.6
   374.4
   416.8
   239.1
   380.0
   354.6
   257.8
   401.6
   408.4
   261.2
   310.8
   398.5
   366.9
   254.4
   348.9
   405.5
   440.9
   381.4
   602.4
   495.3
   537.8
   538.8
   557.6
   557.5
   610.5
   427.3
   562.2
   512.6
   522.7
   436.6
   585.0
   460.6
   492.4
   513.5
   385.7
   507.0
   428.4
   532.2
   575.3
   429.3
   569.2
   569.5
   447.0
   504.4
   479.8
   556.1
   440.1
   430.0
   544.3
   615.2
   603.6
   415.7
   474.1
   527.0
   546.6
   409.6
   643.8
   413.6
   506.5
   386.1
   556.1
   455.5
   510.8
   537.1
   500.4
   432.7
   430.8
   408.6
   567.1
   438.3
   508.7
   658.8
   521.5
   446.3
   389.9
   574.2
   492.1
   576.9
   406.4
   481.3
   647.6
   479.4
   513.9
   628.9
   471.1
   418.6
   443.3
   438.3
   546.5
   478.2
   534.0
   415.4
   501.5
   611.8
   542.4
   641.9
   455.8
   519.2
   504.5
   795.3
   622.8
   587.7
   578.7
   371.1
   720.5
   668.2
   543.6
   589.1
   410.7
   537.5
   529.4
   566.4
   473.1
   589.8
   442.5
   648.7
   568.4
   635.0
   538.0
   499.5
   466.7
   725.2
   657.6
   573.3
   518.7
   615.9
   658.7
   375.5
   424.2
   517.5
   549.4
   478.4
   464.9
   544.1
   478.2
   486.9
   450.1
   539.9
   528.8
   485.7
   584.1
   504.2
   537.0
   645.1
   556.8
   453.7
   662.8
   554.0
   592.2
   801.5
   710.9
   527.3
   500.1
   492.2
   594.6
   511.9
   503.5
   683.2
   534.7
   543.1
   804.6
   623.4
   547.1
   592.0
   550.5
   739.3
   677.8
   625.2
   660.4
   687.9
   574.5
   421.6
   435.9
   621.3
   432.1
   220.3
   567.6
   467.5
   645.9
   607.0
   726.2
   829.1
   663.4
   601.4
   585.4
   776.2
   719.2
   513.1
   420.8
   558.8
   495.6
   539.0
   585.3
   732.2
   745.3
   720.7
   662.9
   562.7
   677.6
   696.8
   937.4
   527.8
   488.9
   507.6
   734.2
   663.5
   611.0
   616.0
   706.2
   673.4
   600.9
   605.6
   746.0
   727.8
   551.8
   709.8
   596.0
   481.9
   512.9
   676.6
   591.6
   792.8
   631.0
   594.5
   668.1
   636.8
   756.5
   541.0
   604.2
   515.2
   871.0
   799.4
   771.9
   785.8
   623.4
   734.6
   827.5
   478.6
   547.5
   527.5
   558.2
   699.6
   617.1
   695.0
   676.7
   633.4
   572.1
   717.7
   761.7
   866.3
   860.4
   484.5
   515.9
   442.5
   608.5
   780.4
   853.5
   662.0
   662.9
   624.4
   702.4
   786.8
   572.9
   661.0
   713.5
   646.1
   598.6
   620.4
   441.5
   557.8
   621.0
   812.8
   675.3
   814.9
   628.4
   659.4
   714.3
   903.2
   843.2
   764.7
   894.3
   764.0
   854.0
   955.8
   412.2
   525.8
   732.4
   649.2
   761.1
   581.1
   791.8
   745.6
   782.3
   632.0
   664.8
   743.0
   871.3
   686.2
   632.0
   670.8
   904.0
   876.7
   795.5
   789.4
   775.4
   712.0
   516.4
  1112.2
   916.0
   890.7
   539.4
   487.4
   569.2
   565.4
   658.4
   650.1
   681.3
   879.4
   777.1
   831.2
   778.7
   722.7
   827.4
   746.6
   881.4
   789.7
   873.3
   842.6
   655.4
   856.0
   791.2
   857.5
   715.2
   734.9
   853.6
   821.7
   422.8
   573.7
   547.3
   435.5
   477.0
   430.0
   569.1
   539.7
   834.4
   669.3
   929.3
   927.8
   790.8
   818.4
   733.4
   871.0
   895.9
   985.8
   715.5
   983.8
   962.8
   837.9
   856.0
   711.1
   820.8
   811.0
   819.5
   835.2
   615.1
   879.3
   648.2
   890.9
   769.9
   910.9
  1058.5
   943.6
  1043.8
   997.9
   711.0
   889.9
   491.0
   550.9
   669.4
   839.8
   734.2
   663.3
   726.4
   868.2
  1010.9
   997.5
   690.1
   780.1
   986.1
  1039.9
   794.0
  1033.9
   843.6
   945.0
   907.3
   684.8
   767.6
   961.3
   987.0
   889.1
   703.1
   890.1
   609.4
   598.7
   926.3
   839.5
   908.7
   678.2
   759.3
   730.3
  1165.8
   937.2
  1141.6
  1092.6
  1015.2
  1166.2
   996.9
  1118.3
  1155.0
  1084.1
  1062.5
   958.0
  1053.8
   710.0
   870.6
   768.6
   840.4
   588.3
   508.1
   551.4
   517.0
   438.5
   389.8
   383.8
   485.3
   487.1
   427.4
   457.7
   615.8
   589.1
  1088.7
   913.9
  1112.7
   932.1
   833.9
  1176.1
  1046.2
  1180.8
   889.7
  1093.4
  1138.6
  1158.5
   906.2
  1155.3
   893.6
  1138.0
  1130.7
  1220.5
  1120.2
  1314.5
  1332.4
  1029.6
  1100.4
   722.7
  1013.9
  1235.8
  1203.5
  1123.4
  1015.9
   960.6
   812.8
   862.8
  1011.4
  1052.7
  1039.3
   740.2
  1076.7
  1243.4
  1257.9
   925.1
   924.6
   885.5
  1078.2
  1291.7
  1247.1
  1319.7
  1159.5
  1054.0
  1239.1
  1236.1
  1215.6
  1055.8
  1113.8
  1244.8
  1285.8
   842.5
   632.3
  1107.7
   994.1
  1149.2
  1139.6
   999.7
   929.4
  1177.9
   910.4
  1254.1
  1256.7
  1253.8
  1222.2
  1265.3
  1384.6
  1120.8
  1115.8
  1044.0
  1267.0
   688.9
   734.2
   810.0
   647.8
   550.1
   525.7
   554.6
   557.0
   523.9
   716.4
   695.6
   597.1
   737.6
   821.1
   815.5
   790.1
   921.8
   923.8
  1267.8
  1285.1
  1197.5
  1117.7
  1217.8
  1372.5
  1371.1
  1322.7
  1389.5
  1192.3
  1386.7
  1178.0
  1202.3
  1294.3
  1331.5
  1401.0
  1322.9
  1322.3
  1396.7
  1298.6
  1270.4
   879.8
   836.5
  1386.6
  1272.1
  1202.4
  1224.7
  1218.3
  1172.1
  1032.2
   996.1
  1206.4
  1053.8
  1302.1
  1275.6
  1107.6
  1222.8
  1277.2
  1256.9
  1049.5
  1164.8
  1229.1
  1436.8
  1412.5
  1418.4
  1248.6
  1182.6
  1301.2
  1297.9
  1282.5
  1405.5
  1206.2
  1268.9
  1093.0
   844.9
  1102.4
   790.4
   983.7
  1188.4
  1224.0
  1090.4
  1279.3
  1233.9
  1427.0
  1235.7
  1429.7
  1176.8
  1105.4
  1122.8
   948.1
  1013.4
   956.5
   755.0
   875.5
   553.2
   668.0
   492.7
   430.3
   510.0
   265.6
   530.1
   640.3
   768.7
   914.9
   634.0
   773.0
   867.5
   980.9
   896.9
  1060.5
  1176.8
  1109.8
  1191.5
  1304.8
  1273.5
  1424.2
  1422.3
  1220.5
  1322.7
  1458.8
  1399.1
  1296.2
  1448.7
  1322.7
  1322.9
  1331.5
  1420.3
  1355.3
  1235.4
  1057.7
  1282.4
  1262.2
  1072.3
  1293.5
  1282.5
  1247.6
  1122.9
  1282.9
  1283.6
  1375.8
  1446.6
  1402.0
  1322.8
  1255.6
  1396.2
  1398.5
  1402.2
  1416.7
  1323.1
  1420.3
  1249.1
  1466.0
  1323.0
  1465.9
  1414.8
  1244.9
  1421.0
  1417.7
  1415.0
  1416.1
  1322.7
  1322.7
  1322.7
  1322.7
  1242.2
  1322.8
  1220.6
  1186.1
  1061.9
  1206.4
  1339.4
  1329.5
  1279.8
  1334.0
  1415.4
  1411.6
  1410.9
  1248.2
  1435.6
  1432.9
  1149.6
  1075.6
  1185.8
  1164.1
   940.0
   562.3
   562.9
   544.7
   499.3
   402.5
   350.5
   358.2
   471.7
   470.0
   558.8
   519.2
   422.8
   403.3
   691.4
   556.7
   508.1
   707.2
   868.0
   602.1
   709.1
   823.6
  1107.5
  1200.3
  1041.0
  1460.3
  1460.6
  1267.8
  1322.8
  1322.7
  1469.1
  1322.7
  1322.7
  1469.2
  1331.5
  1469.2
  1469.2
  1322.9
  1315.4
  1415.2
  1429.7
  1414.4
  1322.9
  1322.8
  1469.1
  1322.8
  1375.8
  1392.2
  1322.8
  1322.8
  1322.8
  1464.7
  1322.8
  1466.1
  1465.0
  1322.8
  1465.1
  1379.4
  1469.0
  1469.1
  1455.2
  1322.8
  1288.6
  1322.8
  1322.8
  1281.4
  1275.7
  1291.9
  1469.1
  1469.1
  1469.0
  1469.1
  1457.1
  1423.2
  1457.4
  1068.0
   772.1
   994.2
   939.9
   660.0
   746.6
   788.6
   773.4
   727.3
   568.2
   634.3
   616.1
   449.1
   416.1
   447.8
   478.3
   567.4
   677.6
  1043.2
  1256.2
  1284.6
  1284.2
  1322.8
  1322.7
  1322.7
  1322.7
  1322.7
  1469.2
  1469.2
  1469.2
  1469.1
  1331.5
  1469.1
  1322.9
  1469.1
  1355.3
  1322.9
  1322.9
  1322.9
  1469.0
  1469.0
  1469.0
  1392.2
  1375.8
  1322.8
  1322.8
  1337.1
  1324.3
  1322.8
  1322.7
  1322.8
  1322.8
  1322.8
  1469.1
  1469.1
  1322.8
  1455.2
  1469.0
  1379.4
  1469.1
  1469.1
  1469.1
  1463.3
  1469.1
  1322.8
  1469.1
  1469.0
  1469.0
  1396.2
  1461.6
  1177.2
  1199.1
  1063.7
   967.0
  1175.1
   838.9
   802.6
   833.4
   572.5
   652.8
   491.8
   434.7
   631.3
   539.3
   465.9
   364.9
   413.8
   427.1
   566.3
   652.3
   622.8
   566.4
   871.0
   621.9
   867.0
   655.5
   558.6
  1142.9
   909.4
   970.0
  1058.7
   884.4
  1294.9
  1158.8
  1310.2
  1469.1
  1469.1
  1367.3
  1469.2
  1469.1
  1469.2
  1469.1
  1469.1
  1469.1
  1469.1
  1436.5
  1469.0
  1469.0
  1469.0
  1322.8
  1469.0
  1469.0
  1469.0
  1322.8
  1322.7
  1322.8
  1469.1
  1329.7
  1469.1
  1322.7
  1379.4
  1469.0
  1469.0
  1469.0
  1322.8
  1469.0
  1469.1
  1469.0
  1469.1
  1469.1
  1322.8
  1322.8
  1322.8
  1322.8
  1435.6
  1356.3
  1207.4
  1146.9
   978.2
  1194.2
  1067.1
  1207.0
  1199.7
   777.7
   541.6
   737.7
   519.9
   767.3
   607.1
   447.7
   531.2
   449.3
   621.9
   519.3
   572.8
   459.8
   513.6
   563.1
   872.8
   651.3
   868.7
  1014.7
   828.0
  1365.5
  1284.3
  1363.7
  1112.7
  1469.1
  1469.1
  1469.2
  1469.2
  1469.2
  1469.1
  1469.2
  1469.1
  1469.2
  1469.1
  1469.1
  1469.1
  1469.1
  1469.1
  1469.0
  1469.1
  1469.0
  1322.8
  1322.8
  1322.8
  1322.8
  1324.3
  1322.9
  1469.0
  1337.1
  1469.0
  1322.6
  1322.7
  1322.7
  1322.7
  1322.6
  1322.8
  1469.0
  1322.8
  1322.8
  1386.2
  1469.0
  1469.0
  1386.2
  1469.1
  1469.1
  1322.7
  1400.7
  1356.3
  1356.3
  1356.5
  1438.3
  1196.5
  1336.7
   788.8
   619.4
   565.3
   718.2
   637.6
   636.1
   454.0
   456.1
   603.6
   404.0
   480.5
   436.5
   538.9
   825.6
   872.9
  1094.9
  1081.1
  1298.3
  1305.7
  1204.9
  1325.8
  1469.1
  1322.8
  1469.1
  1335.9
  1469.2
  1469.1
  1322.9
  1469.1
  1322.9
  1322.9
  1393.6
  1469.0
  1372.5
  1322.8
  1469.1
  1322.8
  1322.8
  1469.1
  1469.1
  1469.0
  1469.1
  1391.3
  1322.9
  1337.1
  1322.6
  1322.6
  1322.8
  1322.8
  1322.6
  1322.9
  1469.0
  1469.1
  1322.9
  1386.2
  1322.7
  1386.2
  1322.7
  1322.7
  1322.7
  1469.2
  1469.1
  1468.9
  1469.2
  1356.5
  1469.1
  1219.4
  1356.5
  1048.6
  1208.4
  1215.4
  1177.7
   871.9
   917.1
   747.1
   809.7
   859.1
   831.8
   703.2
   691.4
   734.1
   613.0
   688.6
   518.1
   471.2
   586.7
   462.1
   304.2
   466.1
   566.1
   595.8
   399.9
   452.3
   560.9
   636.1
   476.2
   594.2
   614.3
   691.9
   849.2
   808.1
  1222.2
  1219.3
  1186.1
  1227.8
  1169.6
  1469.1
  1469.1
  1430.0
  1322.8
  1418.5
  1469.1
  1469.1
  1328.9
  1469.1
  1469.1
  1469.1
  1469.0
  1469.1
  1469.2
  1372.5
  1469.1
  1469.1
  1469.2
  1417.5
  1469.2
  1322.8
  1322.6
  1322.6
  1322.6
  1322.6
  1322.6
  1322.6
  1322.6
  1322.6
  1469.1
  1322.9
  1469.1
  1322.9
  1322.6
  1468.9
  1322.9
  1468.9
  1468.9
  1468.9
  1322.8
  1356.5
  1322.8
  1468.9
  1322.8
  1324.7
  1382.0
  1469.1
  1286.4
  1197.6
  1188.6
  1157.7
  1152.6
  1104.9
   879.1
   848.0
   767.3
   906.0
   721.0
   696.8
   451.9
   539.1
   420.0
   535.6
   541.8
   452.3
   452.3
   657.7
   561.0
   777.9
   825.3
   866.6
  1058.5
  1102.6
  1166.6
  1111.6
  1242.8
  1429.8
  1364.8
  1323.0
  1469.0
  1335.9
  1325.8
  1412.9
  1323.0
  1469.1
  1468.9
  1469.2
  1418.5
  1323.1
  1469.1
  1469.1
  1469.1
  1323.1
  1469.0
  1372.5
  1469.1
  1322.8
  1469.1
  1469.2
  1417.5
  1361.8
  1417.5
  1417.5
  1469.2
  1469.0
  1322.9
  1322.7
  1322.7
  1322.7
  1469.1
  1469.1
  1322.9
  1469.1
  1469.1
  1322.9
  1322.9
  1322.9
  1469.1
  1469.0
  1322.6
  1339.8
  1468.9
  1322.6
  1468.9
  1322.9
  1468.9
  1356.5
  1322.6
  1322.8
  1356.5
  1368.8
  1340.8
  1138.9
  1339.6
  1101.9
  1011.4
   897.1
   971.7
   631.5
   704.8
   771.1
   499.7
   484.2
   591.5
   423.5
   599.8
   433.8
   463.0
   430.3
   688.7
   671.3
   649.3
   851.2
   828.7
   890.4
  1237.0
  1106.3
  1339.4
  1469.2
  1234.9
  1323.0
  1322.8
  1418.5
  1468.9
  1322.8
  1469.3
  1469.0
  1323.1
  1322.9
  1322.8
  1403.1
  1469.1
  1361.8
  1361.8
  1356.1
  1469.2
  1469.2
  1469.1
  1322.9
  1469.0
  1469.1
  1469.1
  1469.1
  1469.1
  1456.9
  1469.0
  1469.1
  1469.0
  1469.0
  1392.5
  1468.9
  1322.6
  1392.5
  1322.6
  1322.6
  1468.9
  1336.8
  1322.9
  1322.8
  1356.5
  1356.5
  1356.6
  1356.5
  1322.8
  1334.2
  1362.0
   797.6
   844.9
   559.0
   518.6
   576.8
   356.4
   529.0
   431.4
   489.7
   502.7
   606.2
   571.3
   629.2
   792.1
   560.3
   927.7
  1079.8
   937.5
  1119.3
  1100.0
  1225.3
  1469.1
  1322.8
  1331.9
  1322.7
  1468.9
  1469.1
  1468.9
  1469.1
  1322.7
  1469.1
  1469.1
  1356.1
  1322.9
  1356.1
  1356.1
  1469.1
  1469.0
  1469.2
  1322.9
  1469.2
  1322.8
  1469.1
  1322.7
  1469.1
  1469.1
  1322.7
  1469.1
  1322.7
  1469.1
  1322.6
  1322.8
  1392.5
  1392.5
  1339.8
  1468.9
  1339.8
  1322.6
  1336.8
  1469.1
  1434.0
  1322.6
  1421.2
  1434.0
  1136.3
  1340.9
  1085.2
   901.6
  1073.3
   814.0
   717.1
   789.5
   729.3
   768.1
   684.8
   527.1
   479.4
   592.5
   701.7
   431.7
   633.3
   620.0
   567.6
   644.1
   492.6
   493.0
   581.2
   636.6
   920.9
   874.3
  1331.5
  1336.9
  1326.9
  1322.7
  1322.7
  1322.7
  1469.0
  1322.9
  1322.9
  1469.1
  1469.0
  1469.1
  1469.1
  1469.1
  1323.0
  1323.0
  1323.0
  1469.1
  1469.1
  1322.9
  1322.9
  1322.9
  1322.9
  1322.8
  1322.8
  1322.7
  1322.7
  1322.7
  1322.7
  1322.6
  1469.1
  1469.0
  1469.1
  1322.6
  1322.6
  1322.6
  1322.6
  1468.9
  1336.8
  1322.6
  1322.6
  1322.6
  1412.6
  1423.8
  1434.0
  1146.6
  1404.3
  1013.0
  1123.2
   834.4
  1120.6
   832.7
   752.6
   779.8
   712.7
   633.5
   815.9
   447.3
   430.5
   506.4
   374.2
   543.9
   496.0
   417.7
   571.8
   451.1
   472.4
   480.9
   412.3
   512.7
   710.6
   589.5
   595.2
   715.2
   874.5
   977.5
   723.9
   665.3
   952.0
   895.3
  1127.7
  1138.7
  1144.5
  1139.2
  1384.8
  1378.8
  1469.1
  1469.2
  1322.7
  1469.1
  1457.4
  1322.8
  1469.0
  1322.7
  1469.1
  1469.1
  1322.8
  1469.1
  1469.1
  1469.1
  1469.1
  1469.1
  1469.1
  1323.0
  1469.3
  1469.1
  1469.2
  1469.1
  1323.0
  1456.3
  1469.0
  1469.0
  1469.0
  1322.8
  1469.0
  1469.1
  1469.2
  1469.1
  1469.2
  1469.1
  1322.6
  1322.6
  1322.6
  1322.7
  1469.1
  1469.1
  1468.9
  1469.1
  1468.9
  1468.9
  1468.9
  1468.9
  1469.1
  1322.8
  1370.9
  1242.3
  1408.8
   947.3
  1021.7
   596.5
   591.3
   657.8
   678.5
   490.4
   595.5
   532.6
   604.5
   564.8
   486.6
   397.4
   559.9
   543.8
   680.2
   674.2
  1130.7
   920.1
  1180.6
  1139.1
  1456.8
  1352.0
  1456.8
  1322.7
  1322.7
  1322.7
  1322.7
  1322.8
  1322.8
  1469.1
  1322.8
  1322.8
  1469.1
  1469.1
  1469.1
  1469.1
  1469.2
  1447.1
  1469.3
  1322.9
  1323.0
  1323.0
  1469.1
  1322.8
  1322.8
  1322.8
  1469.0
  1469.0
  1469.0
  1322.9
  1469.1
  1469.1
  1322.8
  1469.1
  1322.8
  1469.1
  1469.1
  1469.1
  1469.1
  1456.1
  1469.1
  1456.1
  1381.4
  1219.7
  1348.1
  1156.5
   896.5
   858.6
   815.6
   492.1
   421.8
   640.9
   441.1
   545.7
   475.9
   317.8
   495.5
   441.6
   397.8
   552.1
   597.6
   646.0
   674.7
   495.9
  1002.1
   948.8
   922.1
   881.3
  1124.0
  1129.6
  1136.9
  1359.5
  1343.9
  1357.9
  1322.9
  1469.1
  1469.1
  1469.1
  1322.9
  1322.7
  1322.8
  1322.7
  1468.9
  1322.7
  1322.8
  1323.0
  1469.1
  1468.9
  1322.8
  1323.0
  1322.8
  1322.8
  1469.1
  1469.1
  1469.1
  1322.9
  1469.2
  1469.2
  1469.1
  1469.2
  1469.2
  1469.2
  1463.6
  1469.2
  1469.1
  1469.1
  1469.1
  1469.1
  1469.1
  1469.1
  1469.1
  1469.1
  1469.1
  1469.1
  1469.1
  1469.1
  1398.4
  1469.1
  1469.1
  1322.8
  1469.1
  1469.1
  1455.8
  1324.9
  1251.2
  1455.8
   745.0
   857.2
   998.0
  1004.1
   821.7
   465.2
   533.1
   562.5
   416.7
   577.3
   493.2
   585.2
   573.3
   581.6
   650.4
   744.6
   612.0
   704.0
   786.0
   913.3
   745.9
   954.8
   922.9
  1203.0
  1017.2
  1321.9
  1370.2
  1322.8
  1370.2
  1322.8
  1322.9
  1469.1
  1322.7
  1322.7
  1322.7
  1323.0
  1469.0
  1323.0
  1323.0
  1322.8
  1469.2
  1469.2
  1452.8
  1469.2
  1469.2
  1469.2
  1469.2
  1469.2
  1469.2
  1469.1
  1469.1
  1461.3
  1418.5
  1469.1
  1469.1
  1469.1
  1322.9
  1469.1
  1469.1
  1469.1
  1469.1
  1322.8
  1322.6
  1273.4
  1253.5
  1259.8
  1260.0
  1253.1
  1038.9
  1044.5
   637.5
   652.9
   630.1
   547.4
   697.9
   476.1
   646.8
   704.8
   486.4
   502.5
   560.4
   502.3
   423.2
   410.2
   657.8
   470.0
   528.1
   462.4
   431.2
   510.8
   650.8
   535.1
   599.8
   611.9
   887.1
   886.5
   709.4
  1211.3
  1313.3
  1192.4
  1221.0
  1322.8
  1322.7
  1469.2
  1469.0
  1469.1
  1469.1
  1469.0
  1322.7
  1322.8
  1468.9
  1416.6
  1322.7
  1322.7
  1322.7
  1322.7
  1469.3
  1469.3
  1469.3
  1322.8
  1322.8
  1322.8
  1322.8
  1322.8
  1469.2
  1469.2
  1469.2
  1404.6
  1322.7
  1469.2
  1469.1
  1469.1
  1469.1
  1404.6
  1469.1
  1322.8
  1322.8
  1469.1
  1418.5
  1418.5
  1418.5
  1469.2
  1322.9
  1322.9
  1322.8
  1322.6
  1322.8
  1262.4
  1204.7
  1020.1
  1246.0
  1244.4
  1061.8
  1057.0
   984.7
   834.7
   723.5
   844.6
   919.9
   950.9
   824.5
   545.3
   497.2
   403.1
   457.0
   495.2
   443.6
   533.9
   476.4
   657.4
   688.4
  1206.9
  1076.8
  1229.1
  1469.1
  1329.7
  1322.7
  1322.7
  1322.7
  1322.7
  1322.7
  1322.8
  1322.8
  1416.6
  1416.6
  1469.3
  1323.0
  1469.1
  1469.2
  1469.1
  1323.0
  1469.1
  1469.2
  1469.1
  1469.2
  1469.2
  1469.2
  1469.2
  1322.7
  1322.7
  1322.8
  1322.8
  1322.8
  1322.8
  1322.8
  1469.0
  1457.3
  1322.9
  1322.9
  1322.9
  1322.8
  1322.8
  1322.8
  1322.8
  1469.2
  1469.2
  1469.2
  1469.2
  1450.8
  1469.2
  1469.2
  1469.1
  1469.1
  1423.5
  1468.9
  1469.1
  1377.8
  1284.3
  1425.7
  1356.1
  1197.2
  1269.4
  1026.5
  1086.6
   972.3
   974.9
   854.3
   631.9
   698.8
   694.6
   492.4
   516.4
   550.6
   443.7
   495.7
   762.8
   536.1
   799.7
   672.1
   588.0
   709.8
   792.9
   852.0
   811.6
  1089.6
  1089.9
   924.6
  1034.3
  1261.3
  1322.9
  1329.5
  1319.7
  1391.0
  1331.8
  1391.0
  1391.0
  1391.0
  1469.1
  1322.8
  1464.7
  1469.2
  1469.1
  1469.2
  1322.9
  1469.2
  1469.3
  1323.0
  1469.2
  1323.0
  1469.1
  1469.2
  1469.2
  1469.2
  1469.2
  1322.9
  1322.9
  1404.6
  1469.2
  1469.0
  1469.0
  1395.9
  1469.1
  1322.7
  1469.0
  1468.9
  1469.2
  1469.2
  1322.7
  1322.9
  1469.1
  1469.2
  1469.2
  1377.0
  1427.0
  1469.1
  1469.1
  1360.5
  1021.0
  1140.0
  1294.8
  1282.9
   842.0
   950.8
   803.8
   890.5
   871.5
   740.7
   680.6
   716.8
   428.1
   370.3
   472.7
   478.0
   725.0
   681.0
   548.1
   652.6
   535.1
   726.1
   554.1
   749.6
   813.2
   702.9
   711.3
   625.7
  1100.3
  1041.2
  1131.6
   961.4
  1127.3
  1369.1
  1429.5
  1431.1
  1322.8
  1322.8
  1331.8
  1322.8
  1464.7
  1322.8
  1322.8
  1439.9
  1469.1
  1469.2
  1469.3
  1469.3
  1469.3
  1469.3
  1469.0
  1469.1
  1368.1
  1469.1
  1469.2
  1469.2
  1469.2
  1469.1
  1404.6
  1469.1
  1469.0
  1469.1
  1322.8
  1469.1
  1469.0
  1322.7
  1322.7
  1322.7
  1322.8
  1468.9
  1469.0
  1322.7
  1322.7
  1322.8
  1469.2
  1469.2
  1469.2
  1469.2
  1322.9
  1322.9
  1377.0
  1356.8
  1372.2
  1146.3
   783.9
   792.6
   732.6
   597.9
   607.9
   582.8
   690.8
   686.2
   556.7
   551.2
   563.3
   503.9
   548.5
   298.3
   409.1
   496.0
   394.8
   504.5
   504.8
   446.8
   426.5
   576.4
   846.1
  1292.6
  1274.5
  1146.0
  1363.7
  1302.4
  1456.4
  1465.2
  1469.1
  1322.8
  1469.1
  1407.9
  1322.8
  1469.1
  1469.1
  1433.6
  1439.9
  1469.3
  1469.3
  1469.3
  1469.2
  1469.2
  1469.2
  1469.2
  1469.1
  1469.2
  1469.1
  1322.9
  1322.9
  1444.6
  1469.2
  1469.0
  1469.2
  1469.0
  1469.1
  1469.1
  1469.1
  1469.1
  1322.8
  1469.1
  1322.8
  1322.9
  1322.8
  1322.8
  1322.8
  1442.4
  1469.1
  1401.8
  1469.2
  1442.4
  1467.6
  1401.8
  1469.1
  1469.2
  1440.1
  1467.4
  1264.0
  1244.1
  1353.1
  1089.7
   974.4
  1241.5
   838.4
   579.4
   618.1
   527.5
   442.1
   556.3
   497.3
   626.3
   532.8
   504.3
   531.0
   472.2
   441.0