# vtk DataFile Version 3.0
Landscape
ASCII
DATASET UNSTRUCTURED_GRID
POINTS      23094 float
           0.000           0.000           0.000
        1600.000           0.000           0.000
           0.000        1600.000           0.000
         533.333         533.333           0.000
        1820.535        1836.129         169.455
        1600.000           0.000           0.000
        3200.000           0.000           0.000
        2206.845         612.043         365.479
        1762.672        1354.374         365.479
        4436.497        1560.645         221.322
        3200.000           0.000           0.000
        4800.000           0.000           0.000
        4145.499         520.215         355.311
        4509.992        1245.106         355.311
        6234.052        1737.813          70.470
        4800.000           0.000           0.000
        6400.000           0.000           0.000
        5811.350         579.271         371.423
        5709.934        1102.677         371.423
        8231.839        1585.959         185.601
        6400.000           0.000           0.000
        8000.000           0.000           0.000
        7992.602        1208.401         378.175
        7810.413        1221.100         409.478
        8174.790        1195.703         346.872
        8231.839        1585.959         185.601
        8000.000           0.000           0.000
        9600.000           0.000           0.000
        8610.613         528.653         346.872
        8174.790        1195.703         346.872
       10114.256        2299.635         208.526
       10506.534         877.165          61.328
       11192.297        1979.624         161.112
       10604.362        1718.808         413.132
       10594.054        2157.209         413.132
       11192.297        1979.624         161.112
       11200.000           0.000           0.000
       12800.000           0.000           0.000
       11389.833        1477.243         393.207
       11194.323        1458.834         373.501
       11585.342        1495.653         412.912
       14535.388        1860.001          89.091
       12800.000           0.000           0.000
       14400.001           0.000           0.000
       14221.008        1226.662         371.212
       13953.426        1236.249         394.351
       14488.590        1217.075         348.072
       14535.388        1860.001          89.091
       14400.001           0.000           0.000
       16000.000           0.000           0.000
       14978.463         620.000         348.072
       14488.590        1217.075         348.072
       17224.315        1919.917         290.230
       16000.000           0.000           0.000
       17600.000           0.000           0.000
       16941.438         639.972         395.577
       17272.897        1671.641         395.577
       18961.790        1751.968          56.868
       17600.000           0.000           0.000
       19200.000           0.000           0.000
       18587.263         583.989         363.322
       18433.320        1072.082         363.322
        4436.497        1560.645         221.322
        1820.535        1836.129         169.455
        3200.000           0.000           0.000
        3152.344        1132.258         541.759
        3394.659        1670.360         541.759
       23731.335        1792.943         192.280
       22400.000           0.000           0.000
       24000.001           0.000           0.000
       23377.112         597.648         366.527
       23794.740        1369.809         366.527
       25712.931        1511.197          68.771
       24000.001           0.000           0.000
       25599.999           0.000           0.000
       25104.310         503.732         372.439
       25082.070         954.634         372.439
       25712.931        1511.197          68.771
       27200.000           0.000           0.000
       27507.238        1603.221         199.361
       26806.723        1038.139         381.055
       26260.387         954.858         362.682
       27436.471        1233.946         353.321
       26950.782        1574.682         422.887
       27507.238        1603.221         199.361
       27200.000           0.000           0.000
       28800.001           0.000           0.000
       27835.746         534.407         353.321
       27436.471        1233.946         353.321
       30065.602        1613.570         355.203
       28800.001           0.000           0.000
       30400.000           0.000           0.000
       30030.892        1531.755         400.361
       29983.868        1509.363         414.164
       30077.917        1554.147         386.558
       31040.554         771.051         152.085
       30065.602        1613.570         355.203
       30400.000           0.000           0.000
       30467.383        1052.034         329.162
       30856.849         549.920         271.767
       30077.917        1554.147         386.558
       31415.600        1997.898         169.398
       33371.579        1994.991          93.795
       33224.678        2857.386         143.798
       32167.610        2189.946         465.023
       32108.991        1996.867         449.896
       32226.229        2383.025         480.149
       34548.701        1811.800         337.535
       34459.486        2336.808         235.906
       33371.579        1994.991          93.795
       34126.589        2047.867         400.316
       34526.076        1944.945         400.316
        6234.052        1737.813          70.470
        6043.012        3262.445         154.470
        5160.666        3300.186         332.995
        5812.577        2766.815         426.450
        5368.877        3291.280         426.450
       37099.539        1414.823         298.935
       35200.000           0.000           0.000
       36800.001           0.000           0.000
       36366.513         471.608         359.761
       37071.240        1281.156         359.761
       37099.539        1414.823         298.935
       36800.001           0.000           0.000
       38399.999           0.000           0.000
       37164.685        1261.721         378.478
       37071.240        1281.156         359.761
       37258.130        1242.286         397.195
       39191.316         917.871          47.728
       38399.999           0.000           0.000
       40000.000           0.000           0.000
       39197.105         305.957         262.035
       38845.686         516.965         262.035
       40125.312        1643.514          77.906
       41599.998           0.000           0.000
       41840.942        1855.796         259.011
       41188.751        1166.437         397.329
       40649.545        1059.264         372.763
       41801.073        1548.723         386.340
       41401.517        1801.424         437.448
       41840.942        1855.796         259.011
       41599.998           0.000           0.000
       43200.002           0.000           0.000
       42213.647         618.599         386.340
       41801.073        1548.723         386.340
       43418.644        1867.336         106.930
       43200.002           0.000           0.000
       44800.000           0.000           0.000
       43806.215         622.445         355.371
       43346.708        1252.963         355.371
       34548.701        1811.800         337.535
       37099.539        1414.823         298.935
       36841.038        3085.085         210.508
       36163.093        2103.903         598.691
       35541.450        1657.303         649.676
       37006.988        2012.825         539.540
       35125.659        2132.273         601.884
       48116.282        1628.322         137.706
       49975.028        1831.460         408.252
       48146.017        3166.706         327.097
       49574.000        2015.803         596.777
       49716.673        1803.225         517.449
       49431.328        2228.381         676.105
       10114.256        2299.635         208.526
        8231.839        1585.959         185.601
       10506.534         877.165          61.328
        9078.818        1682.563         486.239
        9275.732        1981.728         515.595
        8881.904        1383.399         456.883
       52954.322        1538.422         165.528
       52800.002           0.000           0.000
       54400.001           0.000           0.000
       53384.775         512.807         340.254
       52912.794        1124.431         340.254
       45576.245        1448.210          89.496
       46228.872        2830.415         196.153
       43557.179        3128.631         172.684
       44646.096        2751.173         511.612
       45024.794        2964.815         538.421
       44267.399        2537.532         484.803
       59004.449        1641.677          75.662
       57600.002           0.000           0.000
       59200.001           0.000           0.000
       58601.484         547.226         327.072
       59078.484        1020.145         327.072
       38196.713        1837.356         107.599
       37099.539        1414.823         298.935
       38399.999           0.000           0.000
       37898.751        1084.060         382.244
       38263.336        1235.203         352.539
       37258.130        1242.286         397.195
       37369.320        1518.718         418.282
       60471.826        1510.939         257.821
       59200.001           0.000           0.000
       60799.999           0.000           0.000
       60157.275         503.646         362.948
       60525.253        1264.957         362.948
       25712.931        1511.197          68.771
       25600.029        2863.835         156.911
       23731.335        1792.943         192.280
       24440.000        1982.018         469.953
       24541.773        2257.380         502.238
[...]
POINT_DATA      23094
SCALARS height float 1
LOOKUP_TABLE default
     0.0
     0.0
     0.0
     0.0
   169.5
     0.0
     0.0
   365.5
   365.5
   221.3
     0.0
     0.0
   355.3
   355.3
    70.5
     0.0
     0.0
   371.4
   371.4
   185.6
     0.0
     0.0
   378.2
   409.5
   346.9
   185.6
     0.0
     0.0
   346.9
   346.9
   208.5
    61.3
   161.1
   413.1
   413.1
   161.1
     0.0
     0.0
   393.2
   373.5
   412.9
    89.1
     0.0
     0.0
   371.2
   394.4
   348.1
    89.1
     0.0
     0.0
   348.1
   348.1
   290.2
     0.0
     0.0
   395.6
   395.6
    56.9
     0.0
     0.0
   363.3
   363.3
   221.3
   169.5
     0.0
   541.8
   541.8
   192.3
     0.0
     0.0
   366.5
   366.5
    68.8
     0.0
     0.0
   372.4
   372.4
    68.8
     0.0
   199.4
   381.1
   362.7
   353.3
   422.9
   199.4
     0.0
     0.0
   353.3
   353.3
   355.2
     0.0
     0.0
   400.4
   414.2
   386.6
   152.1
   355.2
     0.0
   329.2
   271.8
   386.6
   169.4
    93.8
   143.8
   465.0
   449.9
   480.1
   337.5
   235.9
    93.8
   400.3
   400.3
    70.5
   154.5
   333.0
   426.5
   426.5
   298.9
     0.0
     0.0
   359.8
   359.8
   298.9
     0.0
     0.0
   378.5
   359.8
   397.2
    47.7
     0.0
     0.0
   262.0
   262.0
    77.9
     0.0
   259.0
   397.3
   372.8
   386.3
   437.4
   259.0
     0.0
     0.0
   386.3
   386.3
   106.9
     0.0
     0.0
   355.4
   355.4
   337.5
   298.9
   210.5
   598.7
   649.7
   539.5
   601.9
   137.7
   408.3
   327.1
   596.8
   517.4
   676.1
   208.5
   185.6
    61.3
   486.2
   515.6
   456.9
   165.5
     0.0
     0.0
   340.3
   340.3
    89.5
   196.2
   172.7
   511.6
   538.4
   484.8
    75.7
     0.0
     0.0
   327.1
   327.1
   107.6
   298.9
     0.0
   382.2
   352.5
   397.2
   418.3
   257.8
     0.0
     0.0
   362.9
   362.9
    68.8
   156.9
   192.3
   470.0
   502.2
   437.7
   137.7
   226.2
   408.3
   473.8
   535.1
   517.4
   409.8
    49.3
     0.0
     0.0
   245.9
   245.9
   289.2
    66.1
   138.7
   483.1
   483.1
    89.1
   161.1
     0.0
   449.0
   394.4
   412.9
   508.3
   101.2
     0.0
     0.0
   341.9
   314.5
   369.3
   169.6
     0.0
     0.0
   375.1
   399.5
   350.6
    80.8
   361.9
   169.6
   386.6
   386.6
   257.8
    75.7
     0.0
   371.2
   327.1
   415.3
   123.9
   257.4
   257.8
   534.3
   587.2
   481.3
    56.9
   254.2
   121.6
   482.0
   435.6
   528.3
   118.6
   260.1
   254.2
   489.8
   545.3
   434.2
   290.2
    89.1
     0.0
   510.8
   510.8
    61.3
   185.6
     0.0
   456.9
   456.9
   169.5
     0.0
     0.0
   425.3
   365.5
   485.1
   254.2
     0.0
     0.0
   400.9
   423.3
   378.5
   121.7
     0.0
   118.6
   281.2
   281.2
    72.8
     0.0
     0.0
   364.5
   364.5
    72.8
     0.0
   165.5
   382.3
   372.7
   340.3
   425.1
    70.5
   221.3
     0.0
   387.3
   371.4
   355.3
   429.8
    72.8
   165.5
   167.2
   465.8
   506.5
   425.1
   101.2
     0.0
     0.0
   314.5
   314.5
   131.3
   259.2
   161.1
   551.9
   534.1
   569.7
   170.5
   165.5
     0.0
   460.2
   387.3
   533.2
   355.2
   199.4
     0.0
   501.7
   414.2
   589.3
   524.1
   259.2
   131.3
   584.5
   569.7
   599.3
   123.9
     0.0
     0.0
   393.1
   393.1
   318.1
     0.0
     0.0
   406.4
   423.8
   388.9
   307.0
   410.6
   156.9
   557.6
   526.7
   588.5
   239.2
   254.2
   260.1
   585.4
   603.8
   545.3
   587.6
   276.8
   131.3
   290.2
   556.6
   544.9
   575.0
   555.5
    56.9
   121.6
   276.8
   460.3
   460.3
   169.4
    35.9
    93.8
   449.9
   449.9
    89.5
     0.0
   360.3
   375.6
   331.0
   420.1
   360.3
     0.0
     0.0
   403.9
   403.9
   210.5
   298.9
   107.6
   478.9
   418.3
   539.5
    77.9
    47.7
     0.0
   301.0
   301.0
    77.9
   107.6
    47.7
   357.7
   414.5
   301.0
   346.3
   409.4
   199.4
   655.1
   538.8
   614.8
   721.2
   106.9
   259.0
     0.0
   400.5
   355.4
   445.6
   170.5
     0.0
     0.0
   363.8
   387.3
   340.4
   170.5
     0.0
     0.0
   340.4
   340.4
   137.7
     0.0
   226.2
   409.8
   409.8
   526.5
   156.9
   409.4
   611.6
   515.3
   708.0
   138.7
     0.0
     0.0
   380.8
   357.7
   403.9
   155.8
    59.5
   296.0
   447.7
   447.7
   361.4
   165.5
   170.5
   565.9
   533.2
   598.7
    89.5
   172.7
   106.9
   460.3
   435.8
   484.8
    75.7
   170.5
     0.0
   504.0
   504.0
   101.2
   296.0
     0.0
   441.5
   404.1
   478.9
   169.6
   101.2
     0.0
   437.6
   399.5
   369.3
   504.9
   123.9
   257.8
     0.0
   419.1
   393.1
   362.9
   481.3
   137.7
   196.2
   360.3
   504.2
   534.0
   475.4
   499.5
   326.1
   327.1
   584.4
   596.7
   547.0
   646.4
   167.2
   327.1
   408.3
   608.2
   525.1
   676.1
   590.0
   289.2
    49.3
    66.1
   446.4
   509.6
   378.2
   483.1
    59.5
   138.7
     0.0
   426.5
   403.9
   449.2
   290.3
   185.6
   402.7
   609.9
   583.8
   575.8
   662.7
   232.6
     0.0
     0.0
   407.2
   437.1
   377.3
   232.6
     0.0
     0.0
   478.5
   377.3
   579.8
   175.0
   101.2
   169.6
   527.0
   504.9
   549.1
   361.9
   232.6
   173.6
   570.4
   618.2
   511.0
   607.2
   175.0
   295.2
   296.0
   583.6
   615.2
   543.5
   602.8
     0.0
   232.6
     0.0
   511.6
   579.8
   443.5
    70.5
   333.0
   221.3
   497.6
   565.4
   429.8
   208.5
   259.2
   402.7
   527.0
   597.7
   456.3
   403.1
   169.5
   221.3
   563.0
   541.8
   584.2
     0.0
     0.0
   169.5
   505.2
   485.1
   525.2
   184.4
   169.5
   403.1
   549.1
   527.4
   570.7
   333.0
   403.1
   221.3
   604.8
   565.4
   584.2
   662.3
   578.0
   403.1
   333.0
   702.7
   743.1
   662.3
   515.0
   410.6
   605.8
   764.4
   725.4
   814.5
   749.4
    68.8
   409.4
   156.9
   515.3
   515.3
   578.0
   184.4
   403.1
   630.6
   743.1
   570.7
   636.3
   184.4
     0.0
     0.0
   467.3
   501.8
   432.9
   361.4
   167.2
   165.5
   524.4
   506.5
   542.2
   131.3
   161.1
    89.1
   521.2
   508.3
   534.1
   131.3
    89.1
   290.2
   527.8
   510.8
   544.9
   121.7
   118.6
   254.2
   357.7
   434.2
   281.2
    68.8
   192.3
     0.0
   393.6
   372.4
   366.5
   437.7
   737.1
   402.7
   524.1
   794.5
   778.3
   743.6
   875.7
    56.9
   276.8
   290.2
   490.7
   428.2
   575.0
   460.3
   327.4
   524.1
   131.3
   655.1
   599.3
   711.0
   346.3
   199.4
   355.2
   603.0
   589.3
   614.8
   616.5
   169.4
   355.2
   152.1
   458.4
   498.0
   418.8
   332.8
   235.9
   210.5
   586.1
   565.8
   606.5
   172.7
   259.0
   106.9
   490.5
   535.4
   445.6
   169.4
   152.1
    35.9
   397.1
   375.4
   418.8
   169.4
   356.0
   346.3
   632.6
   685.7
   579.6
    89.5
   106.9
     0.0
   435.8
   435.8
   271.2
   259.0
   172.7
   561.7
   588.0
   535.4
   235.9
   143.8
    93.8
   445.7
   445.7
   307.0
   526.5
   678.4
   774.5
   683.1
   865.9
   239.2
   259.7
   121.6
   588.0
   588.0
   436.6
   107.6
   195.3
   549.2
   566.9
   504.0
   604.6
   723.8
   409.4
   346.3
   741.2
   761.3
   721.2
   239.2
   121.6
   254.2
   566.1
   603.8
   528.3
    72.8
   167.2
   408.3
   474.7
   424.3
   525.1
    49.3
   157.9
   318.1
   473.6
   473.6
   359.3
   170.5
    75.7
   540.2
   599.9
   504.0
   519.4
   150.4
    75.7
   257.8
   466.7
   415.3
   518.2
   524.8
   172.7
   196.2
   575.7
   538.4
   612.9
   155.8
   138.7
    59.5
   461.3
   473.5
   449.2
   157.9
   257.4
   318.1
   551.1
   609.0
   473.6
   521.2
   525.3
   584.4
   800.1
   860.7
   832.7
   897.6
   857.1
   448.4
   167.2
   361.4
   641.8
   542.2
   741.3
   318.6
   506.3
   436.6
   724.6
   774.2
   674.9
   493.1
   361.4
   170.5
   672.0
   598.7
   745.2
   359.3
    75.7
   150.4
   519.4
   519.4
   257.4
   150.4
   257.8
   554.9
   587.2
   518.2
   556.9
   712.8
   448.4
   361.4
   782.6
   741.3
   823.8
   175.0
   296.0
   101.2
   511.2
   478.9
   543.5
   289.2
   460.6
   157.9
   563.0
   571.8
   554.2
   289.2
   157.9
    49.3
   531.9
   554.2
   509.6
   300.4
   150.4
   257.4
   603.4
   556.9
   649.8
   515.0
   260.1
   410.6
   666.9
   651.8
   610.1
   749.4
   391.9
   169.6
   436.1
   673.2
   611.8
   734.6
   155.8
   537.1
   138.7
   524.8
   473.5
   576.1
   286.5
   259.7
   534.9
   644.5
   629.0
   660.0
   361.9
   436.1
   169.6
   675.5
   675.5
     0.0
   232.6
     0.0
   443.5
   443.5
   391.9
   608.3
   666.8
   805.9
   745.5
   866.2
   352.9
   173.6
   190.4
   502.0
   567.5
   436.6
   350.1
   587.2
   590.8
   793.0
   878.6
   707.5
   230.0
   184.4
   578.0
   601.0
   557.5
   636.3
   648.6
   361.9
   173.6
   436.1
   630.2
   618.0
   675.5
   607.2
     0.0
   173.6
   232.6
   466.3
   511.0
   421.5
   524.1
   402.7
   259.2
   670.7
   597.7
   743.6
   184.4
     0.0
   169.5
   519.7
   527.4
   525.2
   501.8
   350.1
   333.0
   154.5
   535.7
   645.0
   426.5
   290.3
   402.7
   653.5
   706.0
   749.4
   662.7
   781.6
   800.2
   800.4
  1036.7
   988.7
  1069.0
  1056.2
   522.4
   524.1
   327.4
   769.4
   827.8
   711.0
   350.1
   154.5
   290.3
   581.0
   581.0
   286.5
   534.9
   327.4
   593.9
   648.5
   539.3
   259.7
   276.8
   121.6
   558.6
   558.6
   235.9
   576.6
   143.8
   547.0
   445.7
   648.3
   576.6
   356.0
   143.8
   700.0
   700.0
   304.8
   578.0
   590.8
   768.6
   704.2
   882.0
   657.7
   723.8
   526.5
   409.4
   756.2
   761.3
   708.0
   837.0
   551.6
   346.3
   356.0
   709.5
   733.3
   685.7
   339.4
   701.0
   507.6
   786.6
   859.6
   713.6
   235.9
   632.5
   576.6
   710.7
   821.5
   648.3
   651.9
   436.6
   210.5
   107.6
   566.9
   566.9
   271.2
   195.3
   259.0
   569.4
   557.0
   588.0
   562.6
   551.6
   723.8
   346.3
   811.5
   733.3
   889.6
   410.4
   524.8
   605.4
   795.7
   749.1
   842.3
   386.8
   460.6
   621.8
   745.7
   699.9
   791.5
   720.6
   356.0
   576.6
   784.1
   700.0
   868.3
   551.6
   720.6
   800.2
   939.3
   889.9
  1022.6
   886.7
   597.2
   712.8
   493.1
   841.4
   831.8
   793.0
   913.4
   332.8
   436.6
   670.1
   747.0
   692.7
   801.2
   332.8
   670.1
   632.5
   923.4
   923.4
   304.8
   194.9
   230.0
   549.9
   505.4
   594.5
   534.9
   514.5
   800.3
   844.1
   829.7
   844.0
   866.9
   584.4
   327.1
   167.2
   611.3
   590.0
   646.4
   627.2
   448.4
   584.4
   167.2
   721.8
   627.2
   816.5
   410.4
   271.2
   172.7
   563.8
   563.8
   712.8
   361.4
   493.1
   788.5
   745.2
   831.8
   359.3
   597.2
   493.1
   743.9
   694.9
   793.0
   800.1
   584.4
   448.4
   845.6
   816.5
   897.6
   825.8
   670.1
   720.6
   632.5
   940.3
   929.2
   923.4
   969.1
   507.6
   514.5
   259.7
   728.6
   637.9
   819.3
   347.2
   257.4
   157.9
   541.6
   562.0
   521.2
   347.2
   300.4
   257.4
   649.6
   562.0
   649.8
   687.1
   791.0
   712.8
   597.2
   919.3
   913.4
   925.1
   800.1
   448.4
   731.8
   869.5
   816.4
   922.6
   359.3
   300.4
   563.9
   678.8
   634.3
   723.3
   486.5
   537.1
   295.2
   720.9
   801.6
   640.1
   377.7
   295.2
   175.0
   646.6
   690.4
   602.8
   486.5
   460.6
   537.1
   796.5
   784.0
   801.6
   802.3
   621.8
   460.6
   666.9
   851.1
   791.5
   910.6
   666.9
   460.6
   486.5
   828.1
   802.3
   853.9
   377.7
   486.5
   295.2
   728.2
   690.4
   766.0
   391.9
   377.7
   175.0
   676.7
   676.7
   800.3
   597.2
   563.9
   902.8
   936.2
   878.5
   904.8
   391.9
   666.8
   642.3
   852.1
   946.4
   757.9
     0.0
   173.6
     0.0
   421.5
   421.5
   352.9
   436.1
   173.6
   620.3
   698.3
   618.0
   567.5
     0.0
   190.4
   173.6
   436.6
   436.6
   194.0
   190.4
     0.0
   475.9
   475.9
   678.4
   781.6
   800.4
  1017.1
   977.9
  1056.2
   774.6
   720.6
   670.1
   994.8
  1020.4
   969.1
   350.1
   290.3
   587.2
   644.3
   707.5
   581.0
    86.8
     0.0
     0.0
   220.5
   220.5
    93.7
    86.8
   184.4
   409.6
   464.0
   355.3
   737.1
   653.5
   402.7
   806.0
   778.3
   749.4
   934.0
   507.6
   259.7
   239.2
   612.9
   588.0
   637.9
   737.1
   524.1
   733.0
   930.1
   857.4
   875.7
  1022.8
   534.9
   259.7
   514.5
   744.9
   660.0
   829.7
   753.9
   590.8
   587.2
   894.0
   909.4
   878.6
   522.4
   581.1
   800.2
   864.4
   830.3
   904.1
   875.8
   522.4
   789.4
   733.0
   867.9
   867.9
   515.0
   701.0
   339.4
   816.2
   816.2
   720.6
   576.6
   632.5
   874.1
   821.5
   868.3
   929.2
   800.5
   507.6
   800.5
   826.0
   830.5
   821.5
   339.4
   507.6
   239.2
   713.6
   713.6
   800.3
   800.2
   581.1
   961.0
   887.5
   898.2
  1069.0
   781.6
   526.5
   800.2
   902.0
   856.9
   857.1
   988.7
   800.2
   526.5
   723.8
   911.3
   837.0
   857.1
  1017.1
   721.6
   670.1
   436.6
   890.4
   745.4
   801.2
   984.0
   752.3
   800.2
   723.8
  1026.0
  1018.1
  1017.1
  1041.1
   800.2
   800.2
   752.3
   982.4
  1041.1
   923.8
   318.6
   436.6
   195.3
   639.8
   604.6
   674.9
   525.3
   326.1
   584.4
   832.7
   832.7
   731.8
   448.4
   712.8
   921.6
   823.8
  1019.3
   791.0
   731.8
   712.8
  1027.7
  1019.3
  1036.0
   506.3
   721.6
   436.6
   759.8
   774.2
   745.4
   800.3
   506.3
   605.4
   883.2
   859.4
   860.3
   927.3
   800.2
   800.2
   752.3
   923.3
   922.7
   923.8
   800.3
   800.3
   800.5
  1069.1
  1069.1
  1069.1
  1069.1
   410.4
   506.3
   444.9
   745.2
   780.3
   693.4
   777.6
   727.3
   605.4
   524.8
   875.3
   842.5
   842.3
   931.7
   525.3
   800.1
   727.3
   889.9
   922.6
   857.1
   800.1
   727.3
   800.1
   972.1
  1021.5
   922.6
   800.2
   605.4
   727.3
   923.4
   918.0
   931.7
   922.7
   737.1
   789.4
   753.9
  1029.7
  1040.0
  1022.5
  1028.4
   462.1
   590.8
   753.9
   833.1
   785.5
   909.4
   800.7
   800.2
   581.1
   800.2
   895.8
   887.5
   904.1
   359.3
   563.9
   597.2
   800.9
   878.5
   723.3
   408.6
   300.4
   347.2
   708.6
   687.1
   730.0
   800.3
   731.8
   791.0
  1043.6
  1033.4
  1036.0
  1063.9
   372.1
   352.9
   194.0
   589.7
   551.4
   628.0
   408.6
   563.9
   300.4
   737.8
   737.8
   737.8
   408.6
   502.3
   805.9
   780.5
   777.7
   857.7
   577.6
   486.5
   377.7
   805.0
   844.0
   766.0
   502.3
   408.6
   347.2
   753.9
   730.0
   777.7
   605.6
   800.3
   563.9
   896.2
   866.6
   904.8
   935.4
   621.8
   666.9
   624.2
   924.0
   940.7
   910.6
   917.7
   800.3
   800.3
   791.0
  1066.6
  1064.4
  1063.9
  1069.1
   737.8
   605.6
   408.6
   780.5
   780.5
   800.4
   800.6
   800.4
   978.2
   923.1
   923.1
  1069.2
   534.9
   800.3
   581.1
   855.9
   824.6
   898.2
   866.9
   800.5
   666.9
   486.5
   899.9
   828.4
   853.9
   979.8
   577.6
   777.6
   800.5
   982.0
  1057.4
   906.5
   666.8
   620.7
   722.4
   923.4
   881.9
   928.6
   968.3
   666.8
   722.4
   642.3
   953.3
   943.6
   946.4
   968.3
   372.1
   608.3
   352.9
   670.8
   713.6
   628.0
     0.0
   194.0
     0.0
   519.4
   519.4
   722.4
   792.1
   642.3
   944.6
   945.6
   943.6
   372.1
   216.5
   620.7
   609.5
   637.2
   581.8
   304.8
   230.0
   578.0
   641.0
   704.2
   648.6
   594.5
    93.7
     0.0
     0.0
   431.4
   431.4
    93.4
    93.7
   230.0
   412.5
   433.3
   391.7
   737.1
   753.9
   587.2
  1022.5
  1022.5
   462.1
   753.9
   693.1
   882.1
   963.4
   800.7
   800.6
   701.0
   713.1
   935.6
   919.1
   965.4
   923.1
   551.6
   800.2
   800.2
   878.9
   871.0
   886.7
   800.4
   800.6
   713.1
   950.6
  1010.4
   923.1
   923.1
   522.4
   800.2
   789.4
   890.3
   922.7
   867.9
   875.8
   800.2
   753.9
   789.4
  1047.7
  1039.1
  1040.0
  1063.2
   800.2
   800.2
   800.2
  1069.0
  1069.0
   800.6
   701.0
   800.6
   957.5
   995.9
   919.1
   800.3
   800.5
   800.5
   996.0
   923.0
  1069.1
   551.6
   800.2
   752.3
   896.9
   922.7
   871.0
   800.6
   800.6
   800.5
   923.0
   923.0
   923.0
   800.3
   774.6
   721.6
  1030.3
  1016.0
  1006.1
  1055.8
   800.2
   800.4
   800.2
   996.4
  1069.0
   923.8
   800.2
   800.2
   789.4
   968.2
   922.7
  1063.2
   922.7
   800.3
   506.3
   800.3
   942.1
   863.7
   859.4
  1069.0
   800.5
   800.4
   800.5
  1047.7
  1069.3
  1069.2
   973.8
   774.6
   670.1
   721.6
  1000.0
   984.0
  1016.0
   800.3
   721.6
   506.3
   923.5
  1006.1
   841.0
   800.2
   800.2
   800.2
   923.8
   923.8
   800.3
   800.3
   800.2
   976.2
   922.7
   922.7
  1069.1
   800.2
   774.6
   800.2
  1055.4
  1055.7
  1055.0
   800.1
   731.8
   800.3
   975.2
   922.6
  1032.8
   918.7
   800.2
   800.3
   605.4
   922.2
   918.0
   927.3
   922.7
   800.3
   800.3
   506.3
   945.1
   863.7
   841.0
  1069.1
   800.4
   800.4
   800.4
   922.9
   922.9
   800.2
   800.4
   800.2
   996.4
  1069.0
   923.8
   800.3
   800.3
   731.8
  1043.3
  1033.4
  1032.8
  1069.0
   800.1
   800.2
   727.3
   953.2
  1021.5
   922.7
   922.7
   800.2
   800.2
   800.1
   995.8
   922.7
  1068.9
   800.1
   800.3
   800.3
   979.6
  1069.0
   918.7
   922.6
   800.2
   800.2
   800.2
  1069.0
  1069.1
  1069.0
   800.3
   791.0
   597.2
   972.4
   936.2
   925.1
  1064.4
   605.6
   563.9
   408.6
   802.2
   737.8
   866.6
   800.3
   800.3
   800.3
  1069.1
  1069.1
  1069.1
   800.3
   800.4
   800.4
  1069.1
  1069.1
  1069.1
  1069.1
   800.2
   800.2
   800.2
  1069.0
  1069.0
  1069.0
   624.2
   666.9
   711.3
   956.5
   972.3
   940.7
   800.5
   666.9
   800.5
  1008.0
   971.0
   979.8
  1069.2
   800.3
   605.6
   737.8
   977.5
   927.7
  1027.3
   624.2
   711.3
   800.3
   980.3
  1009.5
   951.1
   800.5
   800.5
   800.5
  1035.3
  1035.3
   800.3
   800.3
   800.3
  1069.1
  1069.1
   800.5
   711.3
   666.9
   985.5
   971.0
   972.3
  1011.4
   800.5
   800.5
   800.5
  1052.3
  1069.2
  1035.3
   777.6
   800.5
   800.5
  1057.6
  1057.4
  1057.7
   800.5
   800.5
   800.5
   973.8
   973.8
   800.5
   711.3
   800.5
  1027.5
  1011.9
  1011.4
  1069.2
   111.5
   194.0
     0.0
   476.5
   433.6
   519.4
   359.3
   613.5
   722.4
   924.1
   924.1
   359.3
   722.4
   620.7
   833.6
   738.5
   928.6
   372.1
   111.5
   216.5
   552.6
   581.8
   523.5
     0.0
   111.5
     0.0
   414.1
   414.1
   265.4
   111.5
     0.0
   433.7
   453.3
   414.1
   800.3
   800.3
   800.3
  1069.0
  1069.0
   800.3
   800.2
   800.3
  1069.0
  1069.0
  1069.0
   301.4
   194.9
   304.8
   579.3
   530.7
   628.0
    93.9
    93.4
   206.1
   451.7
   457.8
   445.6
    93.4
     0.0
     0.0
   473.8
   473.8
   433.2
   301.4
   304.8
   645.2
   662.4
   628.0
   301.4
   368.0
   206.1
   593.6
   555.5
   631.7
   693.1
   800.2
   655.0
   963.1
   970.1
   940.1
   991.2
   800.6
   800.4
   800.5
   944.8
   923.0
   923.0
   996.2
   800.3
   800.2
   800.3
  1069.1
  1069.1
  1069.0
   800.4
   800.4
   800.6
   923.1
   923.1
   923.1
   800.4
   800.4
   800.4
  1069.1
  1069.1
   800.3
   800.3
   800.3
   922.8
   922.8
   800.6
   800.4
   800.4
  1032.7
   996.2
  1069.1
   800.3
   800.2
   800.2
   994.0
  1069.1
   922.7
   922.7
   800.6
   800.4
   800.4
  1069.2
  1069.2
  1069.2
  1069.1
   800.2
   720.6
   774.6
  1032.7
  1023.8
  1020.4
  1055.7
   800.4
   800.4
   800.4
  1069.2
  1069.2
   800.2
   800.2
   800.2
   996.4
   923.8
  1069.0
   800.2
   800.4
   800.4
   996.0
  1069.0
   922.9
   800.3
   800.2
   800.1
  1068.9
  1068.9
  1068.9
  1069.0
   800.3
   800.3
   800.3
  1046.4
  1069.1
  1023.7
   800.3
   774.6
   800.3
  1059.8
  1053.9
  1055.8
  1069.1
   800.3
   774.6
   800.3
  1059.8
  1055.1
  1053.9
  1069.1
   800.4
   800.4
   800.4
  1030.5
  1005.5
  1069.2
  1005.5
   800.3
   800.3
   800.3
   924.2
   922.8
   922.8
   927.3
   800.4
   722.4
   613.5
   961.8
  1023.5
   924.1
   927.0
   800.3
   800.3
   800.2
   922.7
   922.7
   922.7
   800.2
   800.3
   800.2
   922.7
   922.7
   922.8
   800.3
   800.3
   800.3
  1069.1
  1069.1
  1069.1
   800.3
   800.3
   800.2