# vtk DataFile Version 3.0
Landscape
ASCII
DATASET UNSTRUCTURED_GRID
POINTS      21948 float
           0.000           0.000           0.000
        1600.000           0.000           0.000
           0.000        1600.000           0.000
         533.333         533.333           0.000
        1820.535        1836.129         140.552
        1600.000           0.000           0.000
        3200.000           0.000           0.000
        2206.845         612.043         357.675
        1755.615        1295.623         357.675
        4436.497        1560.645         171.414
        3200.000           0.000           0.000
        4800.000           0.000           0.000
        4145.499         520.215         342.329
        4533.374        1144.720         342.329
        6234.052        1737.813         107.441
        4800.000           0.000           0.000
        6400.000           0.000           0.000
        5811.350         579.271         382.621
        5793.504        1203.948         382.621
        8231.839        1585.959         154.551
        6400.000           0.000           0.000
        8000.000           0.000           0.000
        7961.984        1153.958         370.502
        7758.528        1176.179         402.558
        8165.440        1131.736         338.446
        8231.839        1585.959         154.551
        8000.000           0.000           0.000
        9600.000           0.000           0.000
        8610.613         528.653         338.446
        8165.440        1131.736         338.446
       10506.534         877.165          96.601
       11192.297        1979.624         197.937
        9502.865        3552.908         300.568
        9794.027        3133.210         501.993
        9913.917        3170.116         516.201
        9674.137        3096.304         487.784
       11192.297        1979.624         197.937
       11200.000           0.000           0.000
       12800.000           0.000           0.000
       11368.043        1536.630         398.263
       11194.069        1524.260         379.193
       11542.018        1548.999         417.333
       14535.388        1860.001         129.025
       12800.000           0.000           0.000
       14400.001           0.000           0.000
       14276.301        1320.724         381.261
       14058.517        1348.887         406.223
       14494.085        1292.562         356.299
       14535.388        1860.001         129.025
       14400.001           0.000           0.000
       16000.000           0.000           0.000
       14978.463         620.000         356.299
       14494.085        1292.562         356.299
       17224.315        1919.917         178.694
       16000.000           0.000           0.000
       17600.000           0.000           0.000
       16941.438         639.972         373.835
       17318.681        1437.664         373.835
       18961.790        1751.968          72.403
       17600.000           0.000           0.000
       19200.000           0.000           0.000
       18587.263         583.989         367.457
       18459.287        1105.489         367.457
        4436.497        1560.645         171.414
        1820.535        1836.129         140.552
        3200.000           0.000           0.000
        3152.344        1132.258         475.266
        3323.826        1677.819         475.266
       23731.335        1792.943         159.317
       22400.000           0.000           0.000
       24000.001           0.000           0.000
       23377.112         597.648         358.825
       23805.397        1298.692         358.825
       25712.931        1511.197         104.115
       24000.001           0.000           0.000
       25599.999           0.000           0.000
       25104.310         503.732         384.235
       25175.497        1037.058         384.235
       25712.931        1511.197         104.115
       27200.000           0.000           0.000
       27507.238        1603.221         162.631
       26806.723        1038.139         383.233
       26187.229        1029.204         372.986
       27422.104        1158.978         343.928
       26843.688        1569.190         425.401
       27507.238        1603.221         162.631
       27200.000           0.000           0.000
       28800.001           0.000           0.000
       27835.746         534.407         343.928
       27422.104        1158.978         343.928
       30065.602        1613.570         227.048
       28800.001           0.000           0.000
       30400.000           0.000           0.000
       29971.330        1287.415         375.239
       29809.532        1287.095         391.013
       30133.128        1287.735         359.465
       31040.554         771.051         120.651
       30065.602        1613.570         227.048
       30400.000           0.000           0.000
       30480.450         901.328         308.229
       30827.772         514.920         256.993
       30133.128        1287.735         359.465
       32676.537         889.541          63.050
       33371.579        1994.991         141.459
       33224.678        2857.386         204.275
       33090.931        1913.973         425.166
       33075.347        2321.283         425.166
       34548.701        1811.800         242.544
       34459.486        2336.808         229.163
       33371.579        1994.991         141.459
       34126.589        2047.867         343.675
       34506.688        2059.036         343.675
        6234.052        1737.813         107.441
        6043.012        3262.445         194.802
        5160.666        3300.186         300.496
        5632.089        2951.189         390.317
        5638.001        3279.769         357.562
        5626.178        2622.608         423.073
       37099.539        1414.823         185.873
       35200.000           0.000           0.000
       36800.001           0.000           0.000
       36366.513         471.608         331.900
       37024.080        1058.405         331.900
       37099.539        1414.823         185.873
       36800.001           0.000           0.000
       38399.999           0.000           0.000
       37222.488        1061.806         353.126
       37024.080        1058.405         331.900
       37420.895        1065.207         374.352
       39191.316         917.871          63.590
       38399.999           0.000           0.000
       40000.000           0.000           0.000
       39197.105         305.957         269.186
       38858.508         531.837         269.186
       40125.312        1643.514         109.387
       41599.998           0.000           0.000
       41840.942        1855.796         174.555
       41188.751        1166.437         392.531
       40584.202        1132.088         382.199
       41778.217        1372.682         368.419
       41207.131        1777.372         426.558
       41840.942        1855.796         174.555
       41599.998           0.000           0.000
       43200.002           0.000           0.000
       42213.647         618.599         368.419
       41778.217        1372.682         368.419
       43418.644        1867.336         122.383
       43200.002           0.000           0.000
       44800.000           0.000           0.000
       43806.215         622.445         358.209
       43349.882        1280.071         358.209
       34548.701        1811.800         242.544
       37099.539        1414.823         185.873
       36841.038        3085.085         212.833
       36163.093        2103.903         506.104
       35236.007        1704.838         514.447
       36945.125        2412.545         480.603
       35299.086        2228.604         525.368
       48116.282        1628.322         125.697
       49975.028        1831.460         233.188
       48146.017        3166.706         229.146
       49257.474        2120.145         487.142
       49414.681        1770.221         453.948
       49100.266        2470.069         520.336
       10506.534         877.165          96.601
        9502.865        3552.908         300.568
        8231.839        1585.959         154.551
        9413.746        2005.344         472.463
        9226.112        3124.624         496.326
        9065.779        1326.104         445.989
        9674.137        3096.304         487.784
       52954.322        1538.422         182.309
       52800.002           0.000           0.000
       54400.001           0.000           0.000
       53384.775         512.807         342.095
       52914.467        1141.113         342.095
       45576.245        1448.210         109.199
       46228.872        2830.415         201.944
       43557.179        3128.631         185.061
       44618.425        2777.981         486.639
       45035.276        2963.645         502.263
       44201.574        2592.316         471.015
       59004.449        1641.677         168.382
       57600.002           0.000           0.000
       59200.001           0.000           0.000
       58601.484         547.226         349.833
       59058.059        1191.611         349.833
       38196.713        1837.356         131.409
       37099.539        1414.823         185.873
       38399.999           0.000           0.000
       37898.751        1084.060         372.226
       38258.716        1276.963         357.069
       37420.895        1065.207         374.352
       37585.613        1602.015         392.000
       60471.826        1510.939         180.896
       59200.001           0.000           0.000
       60799.999           0.000           0.000
       60157.275         503.646         342.695
       60557.633        1115.879         342.695
       25712.931        1511.197         104.115
       25600.029        2863.835         198.957
       23731.335        1792.943         159.317
[...]
POINT_DATA      21948
SCALARS height float 1
LOOKUP_TABLE default
     0.0
     0.0
     0.0
     0.0
   140.6
     0.0
     0.0
   357.7
   357.7
   171.4
     0.0
     0.0
   342.3
   342.3
   107.4
     0.0
     0.0
   382.6
   382.6
   154.6
     0.0
     0.0
   370.5
   402.6
   338.4
   154.6
     0.0
     0.0
   338.4
   338.4
    96.6
   197.9
   300.6
   502.0
   516.2
   487.8
   197.9
     0.0
     0.0
   398.3
   379.2
   417.3
   129.0
     0.0
     0.0
   381.3
   406.2
   356.3
   129.0
     0.0
     0.0
   356.3
   356.3
   178.7
     0.0
     0.0
   373.8
   373.8
    72.4
     0.0
     0.0
   367.5
   367.5
   171.4
   140.6
     0.0
   475.3
   475.3
   159.3
     0.0
     0.0
   358.8
   358.8
   104.1
     0.0
     0.0
   384.2
   384.2
   104.1
     0.0
   162.6
   383.2
   373.0
   343.9
   425.4
   162.6
     0.0
     0.0
   343.9
   343.9
   227.0
     0.0
     0.0
   375.2
   391.0
   359.5
   120.7
   227.0
     0.0
   308.2
   257.0
   359.5
    63.0
   141.5
   204.3
   425.2
   425.2
   242.5
   229.2
   141.5
   343.7
   343.7
   107.4
   194.8
   300.5
   390.3
   357.6
   423.1
   185.9
     0.0
     0.0
   331.9
   331.9
   185.9
     0.0
     0.0
   353.1
   331.9
   374.4
    63.6
     0.0
     0.0
   269.2
   269.2
   109.4
     0.0
   174.6
   392.5
   382.2
   368.4
   426.6
   174.6
     0.0
     0.0
   368.4
   368.4
   122.4
     0.0
     0.0
   358.2
   358.2
   242.5
   185.9
   212.8
   506.1
   514.4
   480.6
   525.4
   125.7
   233.2
   229.1
   487.1
   453.9
   520.3
    96.6
   300.6
   154.6
   472.5
   496.3
   446.0
   487.8
   182.3
     0.0
     0.0
   342.1
   342.1
   109.2
   201.9
   185.1
   486.6
   502.3
   471.0
   168.4
     0.0
     0.0
   349.8
   349.8
   131.4
   185.9
     0.0
   372.2
   357.1
   374.4
   392.0
   180.9
     0.0
     0.0
   342.7
   342.7
   104.1
   199.0
   159.3
   458.5
   480.0
   437.0
   125.7
   142.4
   233.2
   407.9
   453.9
   361.8
   138.8
     0.0
     0.0
   283.3
   283.3
   116.5
   212.1
   300.4
   423.0
   422.9
   423.0
   129.0
   197.9
     0.0
   449.1
   406.2
   417.3
   497.3
   136.8
     0.0
     0.0
   349.5
   323.5
   375.4
   170.5
     0.0
     0.0
   373.0
   397.1
   348.9
    91.9
   247.4
   170.5
   346.7
   346.7
   180.9
   168.4
     0.0
   400.9
   349.8
   451.9
   122.1
   216.4
   180.9
   472.3
   499.5
   445.1
    72.4
   189.0
   145.0
   452.5
   420.1
   484.8
   108.2
   201.9
   189.0
   439.1
   474.9
   403.3
   178.7
   129.0
     0.0
   475.7
   475.7
    96.6
   154.6
     0.0
   446.0
   446.0
   140.6
     0.0
     0.0
   400.9
   357.7
   444.1
   189.0
     0.0
     0.0
   388.2
   412.2
   364.2
   103.1
     0.0
   108.2
   265.9
   265.9
   101.4
     0.0
     0.0
   372.6
   372.6
   101.4
     0.0
   182.3
   388.3
   381.8
   342.1
   430.8
   107.4
   171.4
     0.0
   387.3
   382.6
   342.3
   429.3
   101.4
   182.3
   197.0
   461.1
   491.4
   430.8
   136.8
     0.0
     0.0
   323.5
   323.5
   187.4
   300.6
   197.9
   456.3
   356.8
   514.3
   423.1
   168.8
   182.3
     0.0
   440.2
   386.0
   494.4
   227.0
   162.6
     0.0
   446.3
   391.0
   501.5
   300.7
   300.6
   187.4
   480.4
   423.1
   537.7
   122.1
     0.0
     0.0
   391.3
   391.3
   231.7
     0.0
     0.0
   386.0
   405.2
   366.8
   300.7
   159.3
   199.0
   504.0
   521.2
   480.0
   522.3
   232.5
   189.0
   201.9
   503.3
   519.5
   474.9
   515.3
   221.6
   187.4
   178.7
   499.3
   496.1
   473.4
   514.8
    72.4
   145.0
   221.6
   443.1
   443.1
    63.0
   204.3
   300.2
   475.4
   531.8
   485.6
   425.2
   109.2
     0.0
   197.4
   347.8
   335.3
   326.8
   384.4
   197.4
     0.0
     0.0
   326.8
   326.8
   212.8
   185.9
   131.4
   436.3
   392.0
   480.6
   109.4
    63.6
     0.0
   323.0
   323.0
   109.4
   131.4
    63.6
   374.4
   425.7
   323.0
   300.2
   300.2
   162.6
   530.1
   468.2
   523.0
   569.0
   122.4
   174.6
     0.0
   391.8
   358.2
   425.3
   168.8
     0.0
     0.0
   362.4
   386.0
   338.8
   168.8
     0.0
     0.0
   338.8
   338.8
   125.7
     0.0
   142.4
   361.8
   361.8
   300.3
   199.0
   300.2
   518.9
   516.1
   495.7
   554.6
   212.1
     0.0
     0.0
   393.3
   372.1
   414.4
   107.9
   227.5
   300.4
   422.9
   422.9
   422.9
   300.0
   182.3
   168.8
   457.4
   422.5
   494.4
   422.5
   109.2
   185.1
   122.4
   452.0
   432.9
   471.0
   168.4
   168.8
     0.0
   497.5
   497.5
   136.8
   227.5
     0.0
   425.6
   387.3
   464.0
   170.5
   136.8
     0.0
   432.2
   397.1
   375.4
   482.9
   122.1
   180.9
     0.0
   397.3
   391.3
   342.7
   445.1
   125.7
   201.9
   197.4
   455.2
   480.7
   419.1
   468.5
   300.2
   201.9
   229.1
   510.0
   524.2
   503.5
   503.7
   197.0
   229.1
   233.2
   511.1
   488.9
   520.3
   520.2
   116.5
   300.4
   138.8
   424.9
   423.0
   423.0
   429.3
   107.9
   212.1
     0.0
   442.9
   414.4
   471.4
   300.6
   194.8
   154.6
   508.4
   491.0
   496.3
   538.7
   165.3
     0.0
     0.0
   390.9
   422.6
   359.2
   165.3
     0.0
     0.0
   422.4
   359.2
   485.6
   214.5
   136.8
   170.5
   497.4
   482.9
   511.9
   247.4
   165.3
   152.7
   489.7
   505.8
   454.2
   520.0
   214.5
   300.4
   227.5
   454.0
   510.7
   422.9
   422.9
     0.0
   165.3
     0.0
   435.1
   485.6
   384.6
   107.4
   300.5
   171.4
   425.1
   423.0
   429.3
   423.1
   300.6
   300.6
   197.9
   436.5
   356.8
   516.2
   248.7
   140.6
   171.4
   482.2
   475.3
   489.0
     0.0
     0.0
   140.6
   457.2
   444.1
   470.3
   169.3
   140.6
   248.7
   485.9
   475.2
   496.6
   300.5
   248.7
   171.4
   446.3
   423.0
   489.0
   423.0
   300.5
   248.7
   300.5
   480.9
   538.7
   423.0
   300.7
   201.9
   159.3
   506.1
   477.4
   521.2
   531.4
   104.1
   300.2
   199.0
   480.1
   495.7
   464.5
   300.5
   169.3
   248.7
   516.9
   538.7
   496.6
   530.5
   169.3
     0.0
     0.0
   443.9
   468.6
   419.2
   300.0
   197.0
   182.3
   452.9
   422.5
   491.4
   422.5
   187.4
   197.9
   129.0
   505.8
   497.3
   514.3
   187.4
   129.0
   178.7
   485.9
   475.7
   496.1
   103.1
   108.2
   189.0
   334.6
   403.3
   265.9
   104.1
   159.3
     0.0
   395.9
   384.2
   358.8
   437.0
   300.4
   300.6
   300.7
   474.4
   422.9
   569.4
   422.9
    72.4
   221.6
   178.7
   437.6
   405.1
   473.4
   443.1
   300.2
   300.7
   187.4
   462.0
   422.7
   537.7
   422.7
   300.2
   162.6
   227.0
   507.8
   501.5
   523.0
   504.2
   120.7
   300.2
   227.0
   489.2
   504.2
   474.3
   229.2
   212.8
   300.5
   533.0
   519.9
   529.2
   552.5
   185.1
   174.6
   122.4
   452.6
   479.9
   425.3
    63.0
   300.2
   120.7
   435.2
   474.3
   485.6
   379.9
   300.5
   300.2
   204.3
   540.5
   569.0
   531.8
   512.8
   109.2
   122.4
     0.0
   432.9
   432.9
   242.5
   174.6
   185.1
   488.7
   497.5
   479.9
   229.2
   204.3
   141.5
   480.3
   480.3
   300.3
   300.7
   199.0
   536.8
   516.1
   522.3
   569.4
   232.5
   236.6
   145.0
   526.5
   526.5
   275.3
   131.4
   213.4
   509.6
   514.2
   489.8
   530.7
   300.2
   300.2
   300.2
   569.0
   569.0
   232.5
   145.0
   189.0
   502.1
   519.5
   484.8
   101.4
   197.0
   233.2
   440.8
   392.8
   488.9
   138.8
   300.4
   231.7
   422.9
   422.9
   423.0
   300.3
   168.8
   168.4
   507.7
   489.6
   497.5
   535.6
   300.2
   168.4
   180.9
   431.7
   422.7
   451.9
   422.7
   300.1
   185.1
   201.9
   512.1
   510.9
   502.3
   525.9
   107.9
   300.4
   212.1
   438.5
   422.9
   471.4
   422.9
   300.4
   216.4
   231.7
   469.7
   515.4
   422.9
   422.9
   300.2
   300.1
   201.9
   541.7
   524.2
   525.9
   568.9
   300.2
   197.0
   300.0
   449.7
   513.9
   422.5
   422.5
   300.4
   213.4
   280.0
   451.4
   422.9
   507.9
   422.9
   300.3
   300.0
   168.8
   443.6
   489.6
   422.5
   422.5
   300.2
   300.3
   168.4
   457.2
   422.7
   535.6
   422.7
   216.4
   300.2
   180.9
   449.2
   499.5
   422.7
   422.7
   300.3
   300.2
   300.0
   422.6
   422.5
   422.5
   422.8
   214.5
   227.5
   136.8
   487.3
   464.0
   510.7
   300.2
   212.1
   300.2
   465.4
   422.7
   508.0
   300.2
   300.4
   212.1
   422.8
   422.7
   422.9
   422.8
   300.2
   300.2
   216.4
   485.6
   422.7
   548.4
   270.9
   201.9
   300.7
   531.6
   509.9
   531.4
   559.6
   300.5
   214.5
   170.5
   515.2
   476.9
   511.9
   545.7
   300.4
   300.2
   212.1
   456.2
   422.9
   508.0
   422.9
   300.2
   221.6
   236.6
   527.1
   542.6
   504.9
   542.7
   247.4
   300.5
   170.5
   505.7
   476.9
   534.4
     0.0
   165.3
     0.0
   384.6
   384.6
   300.5
   300.5
   300.5
   569.3
   569.3
   177.8
   300.5
   152.7
   480.6
   527.0
   525.1
   417.1
   300.4
   194.8
   300.4
   475.9
   422.9
   529.0
   190.8
   169.3
   300.5
   513.8
   494.1
   530.5
   526.3
   247.4
   152.7
   300.5
   525.6
   534.4
   525.1
   520.0
     0.0
   152.7
   165.3
   428.0
   454.2
   401.7
   300.7
   300.6
   300.6
   569.4
   569.4
   169.3
     0.0
   140.6
   471.7
   475.2
   470.3
   468.6
   300.5
   300.5
   194.8
   430.0
   357.6
   502.5
   300.4
   194.8
   300.6
   543.3
   538.7
   529.0
   569.3
   300.7
   300.2
   300.4
   479.1
   423.1
   569.1
   423.2
   300.4
   300.7
   300.2
   422.8
   422.9
   422.7
   422.8
   300.5
   300.5
   194.8
   534.6
   532.6
   502.5
   569.3
   300.2
   187.4
   221.6
   526.4
   524.7
   514.8
   542.6
   236.6
   221.6
   145.0
   504.9
   504.9
   229.2
   300.5
   204.3
   514.6
   513.6
   480.3
   554.0
   300.5
   300.5
   204.3
   513.2
   513.6
   512.8
   242.5
   300.5
   300.5
   549.0
   547.9
   569.3
   528.9
   300.2
   300.3
   300.2
   554.6
   554.6
   300.5
   300.2
   300.2
   495.8
   569.0
   422.7
   270.9
   300.7
   300.5
   562.0
   569.3
   560.6
   554.7
   229.2
   300.5
   300.5
   553.2
   554.0
   552.5
   275.3
   212.8
   131.4
   514.2
   514.2
   242.5
   213.4
   174.6
   504.3
   495.0
   497.5
   519.4
   300.2
   300.2
   300.5
   471.7
   422.7
   422.7
   569.3
   242.5
   300.1
   300.3
   551.2
   543.5
   568.9
   541.9
   300.4
   300.4
   300.2
   422.8
   422.9
   422.8
   422.7
   300.5
   300.5
   300.5
   557.7
   569.3
   546.1
   300.2
   300.5
   300.5
   569.1
   569.0
   569.3
   569.0
   300.3
   300.3
   300.3
   422.8
   422.8
   275.3
   300.5
   212.8
   545.0
   529.2
   560.9
   300.5
   300.5
   275.3
   491.9
   560.9
   423.0
   242.5
   182.6
   190.8
   490.9
   470.4
   511.4
   300.2
   300.5
   300.3
   569.0
   569.0
   569.1
   569.1
   300.2
   229.1
   197.0
   522.3
   520.2
   503.7
   539.2
   300.2
   300.2
   197.0
   544.2
   513.9
   539.2
   569.0
   242.5
   300.3
   280.0
   550.6
   559.2
   541.9
   300.3
   300.0
   300.3
   422.6
   422.5
   422.5
   422.8
   300.3
   300.3
   300.2
   422.7
   422.7
   422.7
   300.1
   300.2
   300.2
   495.8
   569.0
   422.6
   300.5
   300.5
   300.5
   569.2
   569.2
   300.5
   300.5
   236.6
   544.6
   517.2
   535.1
   569.3
   300.4
   216.4
   300.4
   462.1
   501.2
   422.9
   300.4
   300.2
   216.4
   544.5
   501.2
   548.4
   569.0
   300.3
   300.3
   300.3
   480.1
   480.1
   300.1
   300.2
   300.2
   422.6
   422.6
   422.7
   300.2
   300.3
   300.2
   451.4
   422.7
   480.1
   300.4
   300.2
   300.4
   495.9
   569.0
   422.9
   300.1
   300.4
   214.5
   422.7
   422.7
   422.9
   422.6
   300.4
   300.2
   300.2
   495.9
   569.0
   422.7
   300.4
   300.2
   300.3
   495.9
   422.7
   569.1
   300.3
   300.2
   300.4
   496.0
   422.7
   569.2
   300.1
   300.4
   300.4
   422.7
   422.7
   422.6
   300.5
   300.1
   214.5
   466.2
   549.2
   422.6
   422.6
   300.3
   300.3
   300.4
   520.1
   480.1
   480.1
   569.3
   300.5
   214.5
   300.5
   554.9
   545.7
   549.2
   569.3
     0.0
   152.7
     0.0
   401.7
   401.7
   177.8
   300.5
   300.5
   475.0
   527.0
   423.0
     0.0
   177.8
   152.7
   417.1
   417.1
   170.1
   177.8
     0.0
   451.5
   451.5
   300.7
   300.7
   300.4
   423.2
   423.2
   423.2
   300.6
   300.5
   300.5
   569.3
   569.3
   300.4
   300.5
   194.8
   477.8
   422.9
   532.6
    87.2
     0.0
     0.0
   220.5
   220.5
    90.8
    87.2
   169.3
   396.6
   439.5
   353.6
   300.4
   300.4
   300.6
   470.0
   422.9
   569.3
   422.9
   300.5
   236.6
   232.5
   529.3
   526.5
   535.1
   526.7
   300.4
   300.7
   300.4
   422.9
   422.9
   422.9
   422.9
   300.2
   236.6
   300.5
   547.5
   517.2
   542.7
   569.0
   300.4
   300.5
   300.4
   569.2
   569.2
   300.4
   300.4
   300.2
   422.8
   422.8
   422.9
   300.4
   300.4
   300.4
   496.0
   422.9
   569.2
   270.9
   300.7
   300.7
   488.9
   554.7
   423.2
   300.5
   300.5
   300.5
   557.7
   546.1
   569.2
   300.5
   300.5
   300.5
   569.2
   569.2
   270.9
   300.5
   232.5
   543.7
   526.7
   560.6
   300.3
   300.3
   300.4
   569.1
   569.2
   569.1
   569.1
   300.7
   300.3
   300.2
   479.5
   423.2
   569.1
   423.1
   300.2
   300.3
   300.2
   495.9
   569.1
   422.7
   300.4
   300.5
   275.3
   448.5
   510.2
   423.0
   423.0
   300.2
   300.2
   300.2
   494.2
   422.7
   422.7
   569.1
   300.2
   300.2
   300.2
   497.3
   569.1
   425.5
   300.4
   275.3
   213.4
   464.9
   422.9
   530.7
   422.9
   300.1
   300.1
   300.2
   569.0
   568.9
   569.0
   300.2
   300.2
   300.3
   422.8
   422.8
   422.7
   300.3
   300.2
   300.3
   422.7
   422.7
   422.7
   300.4
   300.4
   275.3
   466.5
   422.9
   510.2
   300.3
   300.4
   300.3
   481.6
   422.9
   422.9
   569.1
   300.2
   300.2
   300.2
   425.5
   425.5
   300.3
   300.3
   300.5
   569.1
   569.1
   569.1
   569.2
   300.3
   300.4
   280.0
   467.6
   559.2
   422.9
   422.9
   300.1
   300.3
   300.1
   568.9
   568.9
   568.9
   300.1
   300.1
   300.2
   569.0
   569.0
   300.1
   300.1
   300.1
   568.9
   568.9
   300.2
   300.3
   300.1
   495.8
   568.9
   422.6
   300.4
   300.4
   300.4
   498.7
   569.2
   422.9
   422.9
   300.4
   242.5
   300.5
   551.5
   569.3
   528.9
   545.2
   300.1
   300.4
   300.3
   495.9
   422.6
   569.2
   300.4
   300.3
   300.2
   480.1
   480.1
   480.1
   300.2
   300.2
   300.4
   569.1
   569.0
   569.1
   300.3
   300.2
   300.3
   472.9
   422.7
   422.7
   569.0
   170.1
   300.5
   177.8
   430.4
   423.0
   423.0
   451.5
   300.2
   300.4
   300.2
   569.0
   569.0
   300.3
   300.2
   300.4
   569.1
   569.0
   569.1
   569.1
   300.4
   300.4
   300.1
   473.6
   569.2
   422.6
   422.6
   300.4
   300.2
   300.4
   569.1
   569.1
   569.1
   300.2
   300.3
   300.4
   569.1
   569.0
   569.3
   569.1
   300.4
   300.3
   300.4
   569.2
   569.2
   569.1
   569.2
   300.3
   300.3
   300.3
   569.1
   569.2
   569.0
   569.1
   300.3
   300.2
   300.2
   569.0
   569.0
   300.4
   300.6
   300.4
   478.2
   423.1
   423.1
   569.2
   300.2
   300.3
   300.4
   569.1
   569.0
   569.1
   569.1
   300.4
   300.3
   300.4
   569.2
   569.2
   569.2
   569.2
   300.8
   300.1
   300.3
   495.9
   422.6
   569.2
   300.5
   300.5
   300.5
   455.2
   527.4
   423.0
   423.0
   300.5
   300.5
   300.3
   488.9
   423.0
   569.2
   423.0
   170.1
   300.5
   300.5
   472.8
   423.0
   522.7
     0.0
   170.1
     0.0
   472.9
   472.9
   300.5
   300.6
   300.3
   496.1
   569.1
   423.0
   207.5
   300.5
   170.1
   512.0
   526.7
   522.7
   493.7
   242.5
   190.8
   300.5
   527.7
   547.9
   526.3
   511.4
    90.8
     0.0
     0.0
   414.5
   414.5
    97.8
    90.8
   190.8
   400.9
   415.0
   386.8
   300.4
   300.4
   300.4
   422.9
   422.9
   300.4
   300.5
   300.4
   569.3
   569.2
   569.3
   300.6
   300.7
   300.7
   423.1
   423.1
   423.1
   300.2
   300.2
   300.5
   569.1
   569.0
   569.3
   569.1
   300.4
   300.6
   300.7
   423.1
   423.2
   423.1
   423.1
   300.1
   300.4
   300.4
   480.8
   422.6
   569.2
   422.6
   300.3
   300.4
   300.4
   569.1
   569.2
   569.2
   569.1
   300.2
   300.2
   300.2
   569.0
   569.0
   300.6
   300.7
   300.6
   496.2
   569.4
   423.1
   300.3
   300.5
   300.5
   496.1
   423.0
   569.2
   300.2
   300.2
   300.2
   569.1
   569.1
   300.6
   300.6
   300.5
   423.0
   423.0
   423.0
   300.4
   300.6
   300.4
   569.2
   569.1
   569.2
   569.4
   300.2
   300.4
   300.2
   497.3
   569.1
   425.5
   300.1
   300.3
   300.4
   480.7
   422.6
   569.1
   422.6
   300.3
   300.4
   300.3
   475.4
   422.9
   422.9
   569.1
   300.7
   300.5
   300.7
   547.9
   569.4
   569.2
   474.0
   300.6
   300.5
   300.4
   496.1
   423.0
   569.1
   300.4
   300.4
   300.4
   496.0
   569.2
   422.9
   300.2
   300.2
   300.2
   425.5
   425.5
   300.4
   300.3
   300.1
   476.2
   422.6
   422.6
   569.1
   300.2
   300.6
   300.2
   569.0
   569.1
   569.0
   300.1
   300.2
   300.3
   422.7
   422.7
   422.7
   422.6
   300.2
   300.3
   300.3
   495.9
   569.1
   422.7
   300.3
   300.4
   300.4
   488.2
   422.9
   422.9
   569.2
   300.5
   300.4
   300.4
   422.9
   422.9
   300.2
   300.4
   300.2
   497.2
   569.0
   425.5
   300.3
   300.3
   300.2
   473.7
   422.7
   422.7
   569.0
   300.1
   300.2
   300.1
   485.6
   568.9
   422.6
   422.7
   300.2
   300.2
   300.1
   495.8
   422.7
   568.9
   300.1
   300.3
   300.3
   483.3
   569.0
   422.6
   422.6
   300.2
   300.2
   300.3
   569.1
   569.1
   569.1
   300.3
   300.3
   300.3
   512.0
   480.1
   480.1
   569.2
   300.2
   300.4
   300.2
   569.0
   569.0
   569.0
   300.3
   300.3
   300.3
   569.1
   569.0
   569.1
   300.3
   300.4
   300.4
   569.2
   569.2
   569.2
   569.2
   300.2
   300.3
   300.2
   569.0
   569.0
   569.1
   300.4
   300.3
   300.5
   569.2
   569.3
   569.2
   300.4
   300.3
   300.4
   569.2
   569.1
   569.2
   569.2
   300.3
   300.2
   300.3
   569.1
   569.1
   569.1
   300.4
   300.5
   300.4
   569.3
   569.3
   569.3
   300.4
   300.4
   300.4
   540.3
   540.3
   300.3
   300.3
   300.3
   569.0
   569.0
   300.4
   300.5
   300.3
   569.2
   569.1
   569.3
   569.2
   300.4
   300.4
   300.4
   554.8
   569.2
   540.3
   300.8
   300.4
   300.4
   569.3
   569.3
   300.7
   300.7
   300.4
   474.0
   474.0
   300.4
   300.5
   300.4
   569.2
   569.3
   569.2
   569.2
   125.4
   170.1
     0.0
   449.1
   425.2
   472.9
   300.3
   300.5
   207.5
   543.6
   569.2
   526.7
   530.0
   300.3
   300.5
   300.5
   483.3
   569.2
   423.0
   423.0
   125.4
   207.5
   170.1
   459.5
   425.2
   493.7
     0.0
   125.4
     0.0
   416.8
   416.8
   185.6
   125.4
     0.0
   423.2
   429.5
   416.8
   300.3
   300.3
   300.3
   569.1
   569.1
   300.3
   300.3
   300.3
   569.1
   569.1
   569.1
   254.1
   182.6
   242.5
   509.9
   485.5
   534.3
   106.5
    97.8
   200.3
   435.7
   439.4
   432.1
    97.8
     0.0
     0.0
   450.8
   450.8
   254.1
   242.5
   300.5
   544.3
   546.4
   534.3
   555.6
   254.1
   234.2
   200.3
   510.1
   497.7
   522.6
   300.4
   300.3
   300.5
   569.2
   569.2
   569.2
   300.6
   300.4
   300.5
   444.9
   423.0
   423.0
   496.2
   300.4
   300.3
   300.3
   569.2
   569.2
   569.1
   300.4
   300.5
   300.6
   423.1
   423.1
   423.1
   300.4
   300.4
   300.4
   569.2
   569.2
   300.3
   300.3
   300.3
   422.8
   422.8
   300.6
   300.4
   300.4
   532.6
   496.2
   569.1
   300.3
   300.3
   300.1
   494.0
   569.2
   422.6
   422.6
   300.6
   300.5
   300.4
   569.2
   569.3
   569.2
   569.1
   300.2
   300.5
   300.6
   569.1
   569.0
   569.3
   569.1
   300.4
   300.4
   300.4
   569.2
   569.2
   300.2
   300.2
   300.2
   497.2
   425.5
   569.0
   300.2
   300.4
   300.4
   495.9
   569.0
   422.9
   300.2
   300.2
   300.1
   568.9
   569.0
   568.9
   569.0
   300.3
   300.3
   300.4
   546.5
   569.2
   523.7
   300.3
   300.6
   300.4
   569.2
   569.1
   569.4
   569.2
   300.3
   300.6
   300.3
   569.1
   569.1
   569.1
   569.1
   300.4
   300.5