# vtk DataFile Version 3.0
Landscape
ASCII
DATASET UNSTRUCTURED_GRID
POINTS      29024 float
           0.000           0.000           0.000
        1600.000           0.000           0.000
           0.000        1600.000           0.000
         533.333         533.333           0.000
        1820.535        1836.129         198.917
        1600.000           0.000           0.000
        3200.000           0.000           0.000
        2206.845         612.043         372.247
        1769.715        1413.017         372.247
        4436.497        1560.645         257.741
        3200.000           0.000           0.000
        4800.000           0.000           0.000
        4145.499         520.215         363.570
        4494.092        1313.369         363.570
        6234.052        1737.813          57.934
        4800.000           0.000           0.000
        6400.000           0.000           0.000
        5811.350         579.271         367.306
        5680.404        1066.892         367.306
        8231.839        1585.959         210.475
        6400.000           0.000           0.000
        8000.000           0.000           0.000
        8015.766        1249.512         383.855
        7849.693        1255.107         414.486
        8181.839        1243.918         353.224
        8231.839        1585.959         210.475
        8000.000           0.000           0.000
        9600.000           0.000           0.000
        8610.613         528.653         353.224
        8181.839        1243.918         353.224
       10114.256        2299.635         184.967
       10506.534         877.165          61.194
       11192.297        1979.624         147.486
       10604.362        1718.808         392.034
       10606.459        2153.527         392.034
       11192.297        1979.624         147.486
       11200.000           0.000           0.000
       12800.000           0.000           0.000
       11402.127        1444.239         391.438
       11194.463        1422.930         371.153
       11609.790        1465.549         411.724
       14535.388        1860.001          62.536
       12800.000           0.000           0.000
       14400.001           0.000           0.000
       14181.129        1156.923         364.034
       13877.931        1155.333         386.111
       14484.328        1158.513         341.957
       14535.388        1860.001          62.536
       14400.001           0.000           0.000
       16000.000           0.000           0.000
       14978.463         620.000         341.957
       14484.328        1158.513         341.957
       17224.315        1919.917         421.063
       16000.000           0.000           0.000
       17600.000           0.000           0.000
       16941.438         639.972         437.510
       17212.852        1901.941         437.510
       18961.790        1751.968          29.230
       17600.000           0.000           0.000
       19200.000           0.000           0.000
       18587.263         583.989         353.263
       18371.277         992.262         353.263
        4436.497        1560.645         257.741
        1820.535        1836.129         198.917
        3200.000           0.000           0.000
        3152.344        1132.258         585.180
        3398.455        1669.960         585.180
       23731.335        1792.943         276.882
       22400.000           0.000           0.000
       24000.001           0.000           0.000
       23377.112         597.648         384.505
       23769.287        1539.672         384.505
       25712.931        1511.197          50.442
       24000.001           0.000           0.000
       25599.999           0.000           0.000
       25104.310         503.732         366.386
       25029.798         908.517         366.386
       25712.931        1511.197          50.442
       27200.000           0.000           0.000
       27507.238        1603.221         235.242
       26806.723        1038.139         379.434
       26307.437         907.045         356.198
       27449.783        1303.409         362.302
       27050.010        1579.771         420.785
       27507.238        1603.221         235.242
       27200.000           0.000           0.000
       28800.001           0.000           0.000
       27835.746         534.407         362.302
       27449.783        1303.409         362.302
       30065.602        1613.570         279.277
       28800.001           0.000           0.000
       30400.000           0.000           0.000
       29755.201         537.857         402.974
       29884.273        1382.386         402.974
       31040.554         771.051         308.363
       30065.602        1613.570         279.277
       30400.000           0.000           0.000
       30807.967         967.497         435.538
       31036.156         765.756         320.012
       30579.778        1169.238         551.063
       31415.600        1997.898         136.525
       33371.579        1994.991          26.760
       33224.678        2857.386          36.609
       32047.383        2143.131         401.653
       32065.749        1996.932         396.071
       32029.017        2289.330         407.236
       34548.701        1811.800         198.549
       34459.486        2336.808         154.144
       33371.579        1994.991          26.760
       34126.589        2047.867         288.749
       34513.785        2017.272         288.749
        6234.052        1737.813          57.934
        6043.012        3262.445         120.745
        5160.666        3300.186         194.927
        5812.577        2766.815         337.710
        5504.544        3285.477         337.710
       37099.539        1414.823         242.011
       35200.000           0.000           0.000
       36800.001           0.000           0.000
       36366.513         471.608         418.608
       36753.304        1156.939         418.608
       37099.539        1414.823         242.011
       36800.001           0.000           0.000
       38399.999           0.000           0.000
       37433.180         471.608         388.155
       37338.019        1155.371         388.155
       39191.316         917.871          45.539
       38399.999           0.000           0.000
       40000.000           0.000           0.000
       39197.105         305.957         260.175
       38842.521         513.294         260.175
       40125.312        1643.514          27.279
       39191.316         917.871          45.539
       40000.000           0.000           0.000
       39772.209         853.795         273.531
       39640.616        1266.942         273.531
       43418.644        1867.336          47.546
       41599.998           0.000           0.000
       43200.002           0.000           0.000
       43004.603        1109.287         362.478
       42679.178        1108.072         386.466
       43330.028        1110.501         338.490
       43418.644        1867.336          47.546
       43200.002           0.000           0.000
       44800.000           0.000           0.000
       43806.215         622.445         338.490
       43330.028        1110.501         338.490
       34548.701        1811.800         198.549
       37099.539        1414.823         242.011
       36841.038        3085.085         168.418
       36163.093        2103.903         546.980
       36017.557        1583.208         578.972
       37001.149        2050.558         499.837
       35558.700        2372.807         544.972
       48116.282        1628.322         159.612
       49600.000           0.000           0.000
       49975.028        1831.460         204.357
       49230.437        1153.260         428.299
       48511.207        1194.908         394.562
       49889.930        1415.881         377.722
       49197.490        1746.484         498.454
       10114.256        2299.635         184.967
        8231.839        1585.959         210.475
       10506.534         877.165          61.194
        8963.791        1651.780         494.938
        9082.816        1908.588         522.983
        8844.766        1394.971         466.893
       52954.322        1538.422         137.942
       52800.002           0.000           0.000
       54400.001           0.000           0.000
       53384.775         512.807         332.349
       52906.349        1060.178         332.349
       55816.240        1531.934         180.550
       54400.001           0.000           0.000
       55999.999           0.000           0.000
       55663.273        1143.212         366.842
       55462.896        1149.725         390.335
       55863.650        1136.699         343.348
       55816.240        1531.934         180.550
       55999.999           0.000           0.000
       57600.002           0.000           0.000
       56472.081         510.645         343.348
       55863.650        1136.699         343.348
       38196.713        1837.356          95.481
       37099.539        1414.823         242.011
       38399.999           0.000           0.000
       37898.751        1084.060         372.762
       38266.888        1203.097         349.746
       37338.019        1155.371         388.155
       37441.763        1546.617         393.736
       59004.449        1641.677          31.203
       57600.002           0.000           0.000
       59200.001           0.000           0.000
       58601.484         547.226         313.431
       59089.215         930.054         313.431
       25712.931        1511.197          50.442
       25600.029        2863.835         100.885
       23731.335        1792.943         276.882
       24170.890        1898.457         469.486
       24201.128        2062.167         494.065
       24140.653        1734.746         444.907
       63784.513        1656.536         225.626
[...]
POINT_DATA      29024
SCALARS height float 1
LOOKUP_TABLE default
     0.0
     0.0
     0.0
     0.0
   198.9
     0.0
     0.0
   372.2
   372.2
   257.7
     0.0
     0.0
   363.6
   363.6
    57.9
     0.0
     0.0
   367.3
   367.3
   210.5
     0.0
     0.0
   383.9
   414.5
   353.2
   210.5
     0.0
     0.0
   353.2
   353.2
   185.0
    61.2
   147.5
   392.0
   392.0
   147.5
     0.0
     0.0
   391.4
   371.2
   411.7
    62.5
     0.0
     0.0
   364.0
   386.1
   342.0
    62.5
     0.0
     0.0
   342.0
   342.0
   421.1
     0.0
     0.0
   437.5
   437.5
    29.2
     0.0
     0.0
   353.3
   353.3
   257.7
   198.9
     0.0
   585.2
   585.2
   276.9
     0.0
     0.0
   384.5
   384.5
    50.4
     0.0
     0.0
   366.4
   366.4
    50.4
     0.0
   235.2
   379.4
   356.2
   362.3
   420.8
   235.2
     0.0
     0.0
   362.3
   362.3
   279.3
     0.0
     0.0
   403.0
   403.0
   308.4
   279.3
     0.0
   435.5
   320.0
   551.1
   136.5
    26.8
    36.6
   401.7
   396.1
   407.2
   198.5
   154.1
    26.8
   288.7
   288.7
    57.9
   120.7
   194.9
   337.7
   337.7
   242.0
     0.0
     0.0
   418.6
   418.6
   242.0
     0.0
     0.0
   388.2
   388.2
    45.5
     0.0
     0.0
   260.2
   260.2
    27.3
    45.5
     0.0
   273.5
   273.5
    47.5
     0.0
     0.0
   362.5
   386.5
   338.5
    47.5
     0.0
     0.0
   338.5
   338.5
   198.5
   242.0
   168.4
   547.0
   579.0
   499.8
   545.0
   159.6
     0.0
   204.4
   428.3
   394.6
   377.7
   498.5
   185.0
   210.5
    61.2
   494.9
   523.0
   466.9
   137.9
     0.0
     0.0
   332.3
   332.3
   180.5
     0.0
     0.0
   366.8
   390.3
   343.3
   180.5
     0.0
     0.0
   343.3
   343.3
    95.5
   242.0
     0.0
   372.8
   349.7
   388.2
   393.7
    31.2
     0.0
     0.0
   313.4
   313.4
    50.4
   100.9
   276.9
   469.5
   494.1
   444.9
   225.6
     0.0
     0.0
   387.6
   407.1
   368.1
    35.9
     0.0
     0.0
   239.0
   239.0
   283.2
    78.7
   157.6
   497.1
   497.1
    62.5
   147.5
     0.0
   439.6
   386.1
   411.7
   498.2
    86.8
     0.0
     0.0
   337.9
   309.8
   366.1
   158.4
     0.0
     0.0
   372.9
   397.7
   348.0
    77.3
   357.8
   158.4
   384.4
   384.4
   332.2
    31.2
     0.0
   358.9
   313.4
   404.3
   171.7
   405.7
   332.2
   623.6
   706.2
   541.1
    29.2
   343.8
    59.2
   470.6
   436.2
   504.9
   123.9
   281.7
   343.8
   529.3
   594.4
   464.1
   421.1
    62.5
     0.0
   477.5
   437.5
   517.5
    61.2
   210.5
     0.0
   466.9
   466.9
   198.9
     0.0
     0.0
   444.3
   372.2
   516.4
   343.8
     0.0
     0.0
   417.5
   438.4
   396.6
   156.6
     0.0
   123.9
   301.3
   301.3
    19.6
     0.0
     0.0
   343.4
   343.4
    19.6
     0.0
   137.9
   356.6
   351.9
   332.3
   382.0
    57.9
   257.7
     0.0
   388.1
   367.3
   363.6
   431.8
    19.6
   137.9
    40.8
   407.4
   432.8
   382.0
    86.8
     0.0
     0.0
   309.8
   309.8
    89.7
   217.2
   147.5
   532.9
   520.4
   545.4
   180.5
   137.9
     0.0
   463.0
   390.3
   535.8
   279.3
   235.2
     0.0
   506.8
   403.0
   610.7
   388.4
   217.2
    89.7
   558.8
   545.4
   572.3
   332.2
     0.0
     0.0
   380.6
   380.6
   171.7
     0.0
     0.0
   403.2
   403.2
   163.9
   445.7
   100.9
   493.6
   493.6
   101.6
   343.8
   281.7
   550.0
   557.3
   594.4
   520.0
   202.8
    89.7
   421.1
   537.1
   543.0
   560.0
   519.6
    29.2
    59.2
   202.8
   432.4
   432.4
   136.5
    12.2
    26.8
   396.1
   396.1
    74.1
   150.4
    73.9
   460.5
   478.3
   442.6
   159.6
   460.2
   150.4
   525.2
   552.8
   497.7
   168.4
   242.0
    95.5
   446.8
   393.7
   499.8
    27.3
    47.5
   102.3
   444.4
   441.2
   421.1
   463.5
    27.3
    95.5
    45.5
   328.6
   383.7
   273.5
   269.1
   100.9
   312.7
   506.0
   459.6
   552.3
   159.6
    74.1
     0.0
   404.5
   326.9
   405.6
   474.0
   157.6
     0.0
     0.0
   384.5
   361.9
   407.0
    97.2
    42.7
   339.5
   420.5
   420.5
   252.2
   137.9
   180.5
   565.8
   535.8
   595.9
    74.1
    73.9
    47.5
   423.3
   404.1
   442.6
    31.2
   180.5
     0.0
   489.8
   489.8
    86.8
   339.5
     0.0
   448.1
   412.5
   483.6
   158.4
    86.8
     0.0
   434.4
   397.7
   366.1
   502.6
   171.7
   332.2
     0.0
   454.4
   403.2
   380.6
   541.1
   159.6
   150.4
    74.1
   485.9
   497.7
   474.0
   220.7
   460.2
   411.6
   609.6
   533.9
   685.3
    40.8
   460.2
   204.4
   486.4
   616.0
   394.3
   527.6
   283.2
    35.9
    78.7
   449.0
   504.6
   378.6
   497.1
    42.7
   157.6
     0.0
   428.6
   407.0
   450.2
   190.8
   210.5
   327.1
   586.1
   570.5
   600.2
   592.4
   253.7
     0.0
     0.0
   412.3
   441.8
   382.8
   253.7
     0.0
     0.0
   499.2
   382.8
   615.6
   143.7
    86.8
   158.4
   523.7
   502.6
   544.7
   357.8
   253.7
   175.6
   596.3
   653.2
   525.4
   631.5
   143.7
   154.8
   339.5
   546.2
   547.6
   539.5
   549.6
     0.0
   253.7
     0.0
   538.7
   615.6
   461.8
    57.9
   194.9
   257.7
   485.9
   540.0
   431.8
   185.0
   217.2
   327.1
   488.5
   557.6
   419.4
   194.9
   198.9
   257.7
   582.0
   601.6
   585.2
   540.0
     0.0
     0.0
   198.9
   539.6
   516.4
   562.7
   181.5
   198.9
   194.9
   588.9
   552.6
   601.6
   603.7
   289.5
   445.7
   388.8
   652.0
   690.8
   604.0
   676.2
    50.4
   312.7
   100.9
   459.6
   459.6
   356.8
   181.5
   194.9
   621.5
   603.7
   639.2
   181.5
     0.0
     0.0
   468.4
   505.9
   431.0
   252.2
    40.8
   137.9
   433.6
   432.8
   434.5
    89.7
   147.5
    62.5
   509.3
   498.2
   520.4
    89.7
    62.5
   421.1
   530.3
   517.5
   543.0
   156.6
   123.9
   343.8
   382.7
   464.1
   301.3
    50.4
   276.9
     0.0
   396.8
   366.4
   384.5
   444.9
   265.6
   421.6
   155.7
   517.0
   435.5
   598.6
    29.2
   202.8
   421.1
   480.4
   436.6
   560.0
   432.4
   115.2
   202.8
    59.2
   439.6
   439.6
   265.7
   235.2
   279.3
   606.2
   630.6
   610.7
   534.8
   136.5
   279.3
   308.4
   491.0
   458.7
   551.1
   453.4
   221.8
   154.1
   168.4
   523.2
   518.1
   528.3
   265.7
   312.7
   235.2
   630.0
   551.5
   630.6
   667.7
   136.5
   308.4
    12.2
   424.5
   395.7
   453.4
   136.5
    59.5
   265.7
   473.9
   483.5
   464.2
    74.1
    47.5
     0.0
   404.1
   404.1
   102.3
    47.5
    73.9
   421.1
   421.1
   154.1
    36.6
    26.8
   346.1
   346.1
   163.9
   269.1
   295.5
   597.5
   554.3
   640.6
   101.6
   115.2
    59.2
   468.0
   468.0
   514.2
    95.5
    60.2
   504.0
   580.5
   446.4
   530.5
   592.6
   312.7
   265.7
   681.3
   703.0
   667.7
   681.1
   413.5
   388.4
   338.8
   734.2
   771.3
   692.2
   718.6
    19.6
    40.8
   204.4
   394.3
   394.3
    35.9
    92.5
   225.6
   401.9
   401.9
   181.7
   180.5
    31.2
   514.5
   568.7
   489.8
   465.7
    54.7
    31.2
   332.2
   436.6
   404.3
   468.9
   540.9
    73.9
   150.4
   539.5
   478.3
   600.7
    97.2
   157.6
    42.7
   453.2
   456.3
   450.2
    92.5
   405.7
   225.6
   506.7
   624.5
   401.9
   508.1
   329.0
   411.6
   310.7
   670.4
   664.3
   683.7
   663.3
    72.8
    40.8
   252.2
   477.0
   434.5
   519.5
    84.3
   113.9
   514.2
   558.2
   558.2
   481.6
   252.2
   180.5
   643.6
   595.9
   691.3
   181.7
    31.2
    54.7
   465.7
   465.7
   405.7
    54.7
   332.2
   572.5
   706.2
   468.9
   524.5
   535.8
    72.8
   252.2
   541.0
   519.5
   562.5
   143.7
   339.5
    86.8
   511.6
   483.6
   539.5
   283.2
   408.2
    92.5
   520.5
   526.7
   514.3
   283.2
    92.5
    35.9
   509.5
   514.3
   504.6
    83.2
    54.7
   405.7
   551.9
   524.5
   579.3
   289.5
   281.7
   445.7
   654.4
   639.8
   650.9
   676.2
   322.9
   158.4
   342.6
   649.0
   615.6
   682.4
    97.2
   537.5
   157.6
   503.8
   559.0
   456.3
   547.8
   155.7
   388.4
    89.7
   579.3
   572.3
   586.2
   357.8
   342.6
   158.4
   648.3
   648.3
     0.0
   253.7
     0.0
   461.8
   461.8
   322.9
   610.7
   674.2
   798.3
   726.0
   870.6
   333.4
   175.6
   188.3
   509.1
   581.8
   436.4
   275.0
   190.8
   303.8
   549.0
   614.3
   483.7
   237.8
   181.5
   356.8
   617.9
   574.3
   639.2
   654.7
   357.8
   175.6
   342.6
   635.6
   631.0
   648.3
   631.5
     0.0
   175.6
   253.7
   474.3
   525.4
   423.2
   388.4
   327.1
   217.2
   619.9
   682.3
   557.6
   181.5
     0.0
   198.9
   543.0
   552.6
   562.7
   505.9
   275.0
   194.9
   120.7
   438.9
   540.2
   337.7
   275.0
   303.8
   473.9
   627.5
   640.7
   614.3
   154.1
   455.7
    36.6
   453.7
   469.2
   346.1
   591.3
   455.7
    59.5
    36.6
   469.2
   469.2
   101.6
    59.2
   343.8
   531.1
   557.3
   504.9
   215.9
    76.9
   225.0
   510.0
   510.0
   275.0
   120.7
   190.8
   483.7
   483.7
   429.4
   356.8
   473.9
   747.1
   755.9
   734.5
   751.1
   265.6
   115.2
   421.6
   571.0
   558.3
   562.6
   598.6
   592.6
   269.1
   312.7
   618.1
   703.0
   552.3
   632.4
   215.9
    59.5
    76.9
   465.5
   465.5
   131.3
   332.5
   161.1
   561.9
   561.9
   154.1
   555.9
   455.7
   635.7
   720.0
   591.3
   601.6
   514.2
   168.4
    95.5
   587.8
   580.5
   595.1
    27.3
   102.3
    60.2
   446.6
   429.8
   463.5
   510.7
   269.1
   592.6
   754.2
   632.4
   876.1
   129.7
   540.9
   156.5
   566.5
   557.1
   575.9
   349.6
   408.2
   587.3
   708.2
   667.7
   768.4
   680.3
   131.3
   289.5
   332.5
   590.0
   657.7
   561.9
   538.2
   280.5
    76.9
   229.2
   532.5
   506.9
   608.9
   400.6
   348.2
   535.8
   481.6
   751.3
   834.8
   667.7
   731.8
   221.8
   514.2
   333.4
   695.5
   636.5
   754.6
   221.8
   333.4
   555.9
   680.9
   680.9
   429.4
   271.6
   237.8
   596.0
   550.6
   641.5
   411.6
   460.2
    40.8
   581.5
   527.6
   685.3
   535.5
    72.8
   411.6
    40.8
   542.2
   535.5
   549.0
   129.7
   102.3
    73.9
   442.0
   442.0
   535.8
   252.2
   481.6
   763.0
   691.3
   834.8
   181.7
   348.2
   481.6
   619.8
   571.8
   667.7
   182.2
   310.7
   411.6
   629.2
   574.8
   683.7
   333.4
   229.2
   555.9
   606.5
   611.1
   680.9
   550.5
   413.2
   165.4
   115.2
   552.6
   533.5
   571.7
   159.3
   405.7
    92.5
   509.2
   510.3
   508.1
   159.3
    83.2
   405.7
   535.4
   510.3
   579.3
   523.8
   586.2
   535.8
   348.2
   785.2
   866.4
   731.8
   769.4
   182.2
    89.2
   471.3
   475.8
   429.7
   522.0
   181.7
    83.2
   179.0
   481.3
   439.7
   522.8
   219.9
   537.5
   154.8
   614.4
   614.4
   241.0
   154.8
   143.7
   568.3
   587.0
   549.6
   319.2
   537.5
   219.9
   674.1
   733.8
   614.4
   587.3
   408.2
   684.8
   834.3
   768.4
   900.3
   319.2
   408.2
   537.5
   728.5
   761.9
   733.8
   700.7
   241.0
   219.9
   154.8
   605.0
   587.0
   622.9
   322.9
   241.0
   143.7
   560.0
   560.0
   450.2
   274.8
   434.3
   728.3
   728.3
   322.9
   674.2
   442.6
   775.0
   835.7
   714.3
     0.0
   175.6
     0.0
   423.2
   423.2
   333.4
   342.6
   175.6
   625.6
   672.2
   631.0
   581.8
     0.0
   188.3
   175.6
   436.4
   436.4
   249.7
   188.3
     0.0
   493.8
   493.8
   501.6
   333.4
   514.2
   745.6
   740.6
   754.6
   741.5
   437.0
   229.2
   333.4
   598.9
   647.4
   550.5
   421.6
   165.4
   379.3
   654.2
   573.9
   734.4
    85.4
     0.0
     0.0
   219.8
   219.8
    95.6
    85.4
   181.5
   412.6
   469.6
   355.6
   413.5
   327.1
   388.4
   731.2
   720.5
   682.3
   771.3
   413.2
   115.2
   101.6
   500.7
   468.0
   533.5
   212.4
   388.4
   155.7
   587.7
   589.3
   586.2
   421.6
   115.2
   165.4
   568.3
   562.6
   573.9
   477.6
   473.9
   303.8
   726.2
   811.8
   640.7
   287.2
   212.4
   317.4
   568.1
   548.3
   587.9
   287.2
   338.8
   212.4
   629.1
   629.1
   659.8
   269.1
   510.7
   734.1
   678.4
   789.9
   659.8
   510.7
   445.1
   809.3
   814.0
   789.9
   814.5
   212.2
   413.2
   547.8
   639.5
   560.5
   736.8
   560.2
   229.2
    59.5
   455.7
   558.6
   558.6
   229.2
   455.7
   555.9
   623.7
   720.0
   558.6
   611.1
   295.5
   659.8
   445.1
   814.5
   814.5
   313.5
   510.7
   225.0
   640.9
   691.2
   663.5
   596.3
   531.6
   229.3
   178.1
   613.8
   613.8
   215.9
   510.7
   592.6
   766.1
   876.1
   656.1
    84.3
   514.2
    60.2
   530.5
   530.5
   329.0
   220.7
   411.6
   664.3
   664.3
   255.1
    72.8
   535.8
   533.1
   456.6
   562.5
   657.6
   255.1
   586.2
   323.7
   632.5
   697.4
   567.5
   113.9
   501.6
   514.2
   649.4
   558.2
   740.6
   267.5
   450.4
   586.0
   684.0
   593.9
   799.7
   672.4
   101.1
   313.5
   225.0
   494.6
   393.0
   596.3
   269.4
   378.2
   623.6
   698.1
   698.1
   267.5
   295.9
   129.7
   575.5
   646.9
   449.3
   553.9
   445.4
   156.5
   540.9
   664.9
   780.1
   575.9
   606.2
   329.0
   310.7
   445.4
   676.6
   690.0
   663.3
   534.8
   445.4
   310.7
   763.7
   837.5
   690.0
   327.1
   156.5
   445.4
   658.9
   606.2
   711.7
   413.5
   486.9
   477.6
   804.1
   843.1
   747.4
   799.8
   287.2
   537.0
   366.2
   679.1
   647.5
   710.8
   181.7
   179.0
   348.2
   545.8
   568.7
   522.8
    98.6
    83.2
   159.3
   526.1
   523.8
   528.5
   255.1
   323.7
    89.2
   567.5
   567.5
   505.0
   333.4
   249.7
   626.3
   599.8
   652.9
    98.6
   179.0
    83.2
   431.5
   431.5
   438.7
    98.6
   210.2
   588.0
   525.5
   650.5
   350.1
   219.9
   241.0
   639.5
   656.0
   622.9
   210.2
    98.6
   159.3
   527.0
   528.5
   525.5
   147.7
   274.8
   127.9
   523.4
   509.5
   537.4
   587.3
   684.8
   255.0
   753.7
   709.8
   900.3
   665.3
   450.2
   521.5
   586.2
   831.0
   876.0
   767.2
   826.2
   438.7
   127.9
    98.6
   518.6
   518.6
   670.8
   332.5
   445.1
   770.4
   742.4
   746.0
   821.0
   421.6
   379.3
   317.4
   688.7
   668.9
   629.0
   734.4
   319.2
   518.8
   658.3
   748.8
   659.7
   837.9
   350.1
   484.3
   518.8
   790.5
   825.7
   755.4
   674.2
   508.6
   438.6
   812.0
   810.3
   797.3
   837.9
   674.2
   438.6
   442.6
   802.5
   756.9
   835.7
   837.9
   505.0
   610.7
   333.4
   746.7
   840.6
   652.9
     0.0
   249.7
     0.0
   577.7
   577.7
   438.6
   754.4
   442.6
   792.3
   827.7
   756.9
   300.0
   505.0
   159.1
   599.9
   575.4
   624.4
   429.4
   237.8
   356.8
   694.0
   755.9
   654.7
   641.5
    95.6
     0.0
     0.0
   438.0
   438.0
   127.4
    95.6
   237.8
   436.9
   463.6
   410.2
   413.5
   477.6
   303.8
   747.4
   747.4
   531.6
   473.9
   477.6
   811.9
   809.6
   811.8
   814.3
   379.3
   537.0
   317.4
   691.7
   668.9
   714.4
    89.0
   101.1
   225.0
   342.1
   291.3
   393.0
   445.1
   332.5
   484.3
   766.1
   709.2
   818.3
   746.0
   287.2
   486.9
   338.8
   644.3
   629.1
   659.4
   428.6
   477.6
   486.9
   816.1
   801.0
   843.1
   794.8
   121.5
   101.1
   301.6
   477.2
   477.2
   131.3
   184.4
   289.5
   502.1
   465.9
   538.2
   269.4
   547.8
   342.7
   668.0
   635.9
   712.5
   649.9
    89.0
   280.5
   101.1
   406.4
   406.4
   161.1
   213.3
   547.8
   606.7
   606.7
   151.8
   437.0
   501.6
   719.6
   832.2
   543.9
   617.5
   313.5
   445.1
   510.7
   753.9
   691.2
   814.0
   735.8
   366.2
   428.6
   486.9
   774.6
   755.4
   794.8
   773.7
   267.5
   586.0
   151.8
   607.9
   543.3
   672.4
   553.2
   812.7
   719.1
   975.1
   922.7
  1027.4
   437.0
   333.4
   501.6
   786.8
   741.5
   832.2
   151.8
   501.6
   113.9
   543.9
   543.9
   121.5
   313.5
   101.1
   515.2
   515.2
   477.7
   713.1
   366.2
   821.9
   821.9
   622.4
   386.3
   229.2
   706.7
   673.8
   687.9
   765.4
   119.1
    89.2
   315.7
   497.4
   497.4
   187.9
   327.1
   221.7
   541.9
   519.7
   564.1
   267.5
   151.8
   113.9
   543.3
   543.3
   495.7
   670.8
   695.1
   883.0
   831.7
   958.7
   873.3
   327.3
   445.1
   313.5
   689.0
   745.3
   735.8
   604.6
   323.7
   315.7
    89.2
   552.2
   497.4
   607.0
   671.2
   445.4
   534.8
   864.9
   881.8
   837.5
   894.6
   671.2
   327.1
   445.4
   796.7
   881.8
   711.7
   119.1
   315.7
   154.2
   497.5
   497.5
   309.9
   386.3
   726.3
   707.2
   741.5
   672.9
   450.2
   348.2
   274.8
   688.3
   721.3
   655.3
   127.9
   179.0
    98.6
   445.0
   458.6
   431.5
   521.5
   792.2
   386.8
   753.6
   643.0
   864.1
   387.9
   342.7
   555.1
   688.7
   667.6
   693.7
   712.6
   386.3
   142.1
   121.5
   572.8
   572.8
   255.0
   684.8
   295.8
   724.0
   738.2
   709.8
   319.2
   677.8
   717.0
   936.2
   936.2
   147.7
   275.0
   434.3
   632.0
   677.5
   586.5
   411.7
   295.8
   563.4
   718.7
   638.1
   799.2
   895.0
   677.8
   658.3
   977.3
  1038.7
   918.9
   999.2
   521.5
   386.8
   323.7
   643.3
   643.5
   643.0
   374.2
   677.8
   583.5
   834.7
   768.6
   900.9
   319.2
   658.3
   677.8
   918.9
   918.9
   484.3
   658.3
   518.8
   842.8
   825.7
   837.9
   869.2
   553.2
   719.1
   658.3
   960.2
  1005.5
   914.9
   374.2
   717.0
   677.8
   830.4
   768.6
   936.2
   771.6
    87.3
   249.7
     0.0
   505.6
   433.5
   577.7
   240.4
   421.0
   438.6
   754.3
   754.3
   300.0
   438.6
   508.6
   748.7
   797.3
   700.1
   505.0
    87.3
   159.1
   556.0
   575.4
   536.6
     0.0
    87.3
     0.0
   392.6
   392.6
   260.4
    87.3
     0.0
   415.4
   438.3
   392.6
   503.0
   586.0
   450.4
   792.9
   759.7
   799.7
   824.0
   623.6
   537.0
   379.3
   781.9
   869.5
   714.4
   741.0
   140.8
   271.6
   429.4
   524.8
   490.8
   558.8
    50.2
   127.4
   102.0
   441.7
   441.0
   442.4
   127.4
     0.0
     0.0
   511.4
   511.4
   178.1
   140.8
   429.4
   571.6
   584.3
   558.8
   140.8
   429.5
   102.0
   514.7
   497.8
   531.7
   501.7
   477.6
   428.6
   790.0
   813.6
   801.0
   748.1
   213.3
   342.7
   547.8
   659.6
   606.7
   712.5
   477.7
   537.0
   623.6
   848.7
   838.0
   869.5
   841.6
   670.8
   284.0
   332.5
   688.0
   633.6
   742.4
   264.5
   555.1
   342.7
   636.6
   579.5
   693.7
   378.2
   560.8
   623.6
   780.4
   862.7
   698.1
   213.3
   264.5
   342.7
   579.5
   579.5
   713.1
   428.6
   366.2
   819.2
   864.8
   773.7
   213.3
   284.0
   264.5
   571.9
   559.0
   584.9
   622.4
   229.2
   437.0
   667.6
   647.4
   687.9
   695.1
   670.8
   445.1
   889.9
   821.0
   958.7
   121.5
   327.3
   313.5
   559.9
   515.2
   604.6
   327.3
   695.1
   445.1
   756.8
   745.3
   768.2
   671.2
   534.8
   647.7
   899.9
   858.5
   894.6
   951.0
   190.0
   470.0
   151.8
   579.4
   579.4
   470.0
   437.0
   151.8
   665.0
   776.9
   617.5
   579.4
   622.4
   677.4
   726.3
   977.0
  1020.1
   917.5
   964.3
   369.1
   495.7
   472.4
   772.4
   728.9
   815.9
   477.7
   560.8
   767.3
   892.8
   838.1
   947.6
   366.4
   438.6
   421.0
   748.1
   770.1
   754.3
   717.9
   221.7
   503.0
   450.4
   661.7
   563.7
   759.7
   261.4
   542.6
   664.5
   729.5
   630.6
   828.4
   586.0
   190.0
   151.8
   610.0
   610.0
   677.4
   687.7
   726.3
   999.2
   991.3
  1020.1
   981.1
   386.8
   154.2
   315.7
   579.3
   661.0
   497.5
   379.5
   586.0
   503.0
   777.9
   750.6
   824.0
   760.1
   330.0
   470.0
   190.0
   647.9
   647.9
   286.0
   119.1
   154.2
   481.5
   481.5
   386.8
   315.7
   323.7
   637.4
   607.0
   661.0
   643.5
   671.2
   541.7
   664.5
   869.2
   888.4
   843.9
   881.9
   309.9
   726.3
   687.7
   991.3
   991.3
   555.5
   428.6
   713.1
   856.5
   823.8
   864.8
   906.0
   286.0
   154.2
   186.3
   495.7
   481.5
   509.9
   147.7
   434.3
   274.8
   561.9
   586.5
   537.4
   411.7
   255.0
   295.8
   638.1
   638.1
   820.8
   386.8
   792.2
  1086.0
  1086.0
   279.3
   154.2
   386.8
   677.6
   677.6
   260.4
   159.1
    87.3
   474.5
   510.8
   438.3
   668.5
   434.3
   275.0