# vtk DataFile Version 3.0
Landscape
ASCII
DATASET UNSTRUCTURED_GRID
POINTS      21852 float
           0.000           0.000           0.000
        1600.000           0.000           0.000
           0.000        1600.000           0.000
         533.333         533.333           0.000
        1820.535        1836.129          72.812
        1600.000           0.000           0.000
        3200.000           0.000           0.000
        2206.845         612.043         337.518
        1739.628        1162.515         337.518
        4436.497        1560.645          79.744
        3200.000           0.000           0.000
        4800.000           0.000           0.000
        4145.499         520.215         315.796
        4574.080         969.951         315.796
        6234.052        1737.813          63.748
        4800.000           0.000           0.000
        6400.000           0.000           0.000
        5811.350         579.271         350.029
        5619.053         992.545         350.029
        8231.839        1585.959          76.897
        6400.000           0.000           0.000
        8000.000           0.000           0.000
        7798.567         946.734         337.999
        7453.700         912.266         360.743
        8143.434         981.201         315.254
        8231.839        1585.959          76.897
        8000.000           0.000           0.000
        9600.000           0.000           0.000
        8610.613         528.653         315.254
        8143.434         981.201         315.254
       10506.534         877.165          58.262
       11192.297        1979.624          86.998
        9502.865        3552.908         100.531
       10080.183        2611.927         369.287
       10192.463        2910.720         369.276
        9967.903        2313.134         369.298
       11192.297        1979.624          86.998
       11200.000           0.000           0.000
       12800.000           0.000           0.000
       11542.956        1207.936         358.405
       11194.955        1296.535         351.220
       11890.958        1119.337         365.591
       14535.388        1860.001          72.555
       12800.000           0.000           0.000
       14400.001           0.000           0.000
       14123.918        1105.070         350.813
       13762.014        1031.093         362.603
       14485.822        1179.048         339.022
       14535.388        1860.001          72.555
       14400.001           0.000           0.000
       16000.000           0.000           0.000
       14978.463         620.000         339.022
       14485.822        1179.048         339.022
       17224.315        1919.917          80.646
       16000.000           0.000           0.000
       17600.000           0.000           0.000
       16941.438         639.972         348.430
       17356.751        1243.108         348.430
       18961.790        1751.968          51.806
       17600.000           0.000           0.000
       19200.000           0.000           0.000
       18587.263         583.989         345.569
       18360.571         978.489         345.569
        4436.497        1560.645          79.744
        1820.535        1836.129          72.812
        3200.000           0.000           0.000
        3152.344        1132.258         367.817
        3135.519        1697.649         367.817
       23731.335        1792.943          79.109
       22400.000           0.000           0.000
       24000.001           0.000           0.000
       23377.112         597.648         336.130
       23829.250        1139.508         336.130
       25712.931        1511.197          61.290
       24000.001           0.000           0.000
       25599.999           0.000           0.000
       25104.310         503.732         350.731
       24962.053         848.751         350.731
       25712.931        1511.197          61.290
       27200.000           0.000           0.000
       27507.238        1603.221          79.865
       26806.723        1038.139         340.173
       26335.807         878.215         345.513
       27391.385         998.677         319.396
       26769.989        1565.410         353.237
       27507.238        1603.221          79.865
       27200.000           0.000           0.000
       28800.001           0.000           0.000
       27835.746         534.407         319.396
       27391.385         998.677         319.396
       30065.602        1613.570          90.001
       28800.001           0.000           0.000
       30400.000           0.000           0.000
       29912.164        1044.308         340.785
       29636.227        1066.141         358.463
       30188.101        1022.475         323.108
       31040.554         771.051          63.139
       30065.602        1613.570          90.001
       30400.000           0.000           0.000
       30482.426         737.989         274.724
       30776.750         453.503         226.340
       30188.101        1022.475         323.108
       32676.537         889.541          48.854
       33371.579        1994.991          80.216
       33224.678        2857.386          93.035
       33090.931        1913.973         363.337
       33035.838        2179.444         363.337
       33371.579        1994.991          80.216
       33599.999           0.000           0.000
       35200.000           0.000           0.000
       33840.106        1173.653         360.100
       33452.735        1286.187         352.795
       34227.478        1061.120         367.406
        6234.052        1737.813          63.748
        6043.012        3262.445          88.990
        5160.666        3300.186         100.469
        5889.608        2671.702         208.693
        5772.978        3273.996         194.424
        6006.238        2069.409         222.963
       37099.539        1414.823          81.469
       35200.000           0.000           0.000
       36800.001           0.000           0.000
       36366.513         471.608         300.570
       36982.901         863.898         300.570
       37099.539        1414.823          81.469
       36800.001           0.000           0.000
       38399.999           0.000           0.000
       37272.694         887.531         323.776
       36982.901         863.898         300.570
       37562.488         911.163         346.982
       39191.316         917.871          47.198
       38399.999           0.000           0.000
       40000.000           0.000           0.000
       39197.105         305.957         259.794
       38841.873         512.543         259.794
       40125.312        1643.514          62.046
       41599.998           0.000           0.000
       41840.942        1855.796          80.742
       41188.751        1166.437         348.077
       40763.018         932.801         349.152
       41754.102        1186.936         342.729
       41146.425        1769.861         352.456
       41840.942        1855.796          80.742
       41599.998           0.000           0.000
       43200.002           0.000           0.000
       42213.647         618.599         342.729
       41754.102        1186.936         342.729
       43418.644        1867.336          69.727
       43200.002           0.000           0.000
       44800.000           0.000           0.000
       43806.215         622.445         341.492
       43337.775        1176.663         341.492
       37099.539        1414.823          81.469
       33371.579        1994.991          80.216
       35200.000           0.000           0.000
       34725.973        1383.876         372.396
       34227.478        1061.120         367.406
       35224.469        1706.633         377.387
       48116.282        1628.322          65.513
       49975.028        1831.460          90.787
       48146.017        3166.706          90.972
       49179.209        2122.538         362.972
       49284.237        1755.965         358.792
       49074.182        2489.111         367.153
       10506.534         877.165          58.262
        9502.865        3552.908         100.531
        8231.839        1585.959          76.897
        9413.746        2005.344         366.904
        8974.688        2735.540         369.278
        9255.315        1267.044         361.948
        9967.903        2313.134         369.298
       52954.322        1538.422          81.555
       52800.002           0.000           0.000
       54400.001           0.000           0.000
       53384.775         512.807         311.990
       52895.169         948.722         311.990
       45576.245        1448.210          63.109
       46228.872        2830.415          89.103
       43557.179        3128.631          89.423
       44675.533        2678.669         368.146
       44891.567        2979.686         369.044
       44459.498        2377.652         367.249
       59004.449        1641.677          81.094
       57600.002           0.000           0.000
       59200.001           0.000           0.000
       58601.484         547.226         323.378
       59078.166        1022.813         323.378
       38196.713        1837.356          76.598
       37099.539        1414.823          81.469
       38399.999           0.000           0.000
       37898.751        1084.060         334.840
       38270.964        1166.262         339.665
       37562.488         911.163         346.982
       37643.400        1624.270         308.091
       60471.826        1510.939          81.553
       59200.001           0.000           0.000
       60799.999           0.000           0.000
       60157.275         503.646         312.414
       60597.847         930.729         312.414
       25712.931        1511.197          61.290
       25600.029        2863.835          88.708
       23731.335        1792.943          79.109
[...]
POINT_DATA      21852
SCALARS height float 1
LOOKUP_TABLE default
     0.0
     0.0
     0.0
     0.0
    72.8
     0.0
     0.0
   337.5
   337.5
    79.7
     0.0
     0.0
   315.8
   315.8
    63.7
     0.0
     0.0
   350.0
   350.0
    76.9
     0.0
     0.0
   338.0
   360.7
   315.3
    76.9
     0.0
     0.0
   315.3
   315.3
    58.3
    87.0
   100.5
   369.3
   369.3
   369.3
    87.0
     0.0
     0.0
   358.4
   351.2
   365.6
    72.6
     0.0
     0.0
   350.8
   362.6
   339.0
    72.6
     0.0
     0.0
   339.0
   339.0
    80.6
     0.0
     0.0
   348.4
   348.4
    51.8
     0.0
     0.0
   345.6
   345.6
    79.7
    72.8
     0.0
   367.8
   367.8
    79.1
     0.0
     0.0
   336.1
   336.1
    61.3
     0.0
     0.0
   350.7
   350.7
    61.3
     0.0
    79.9
   340.2
   345.5
   319.4
   353.2
    79.9
     0.0
     0.0
   319.4
   319.4
    90.0
     0.0
     0.0
   340.8
   358.5
   323.1
    63.1
    90.0
     0.0
   274.7
   226.3
   323.1
    48.9
    80.2
    93.0
   363.3
   363.3
    80.2
     0.0
     0.0
   360.1
   352.8
   367.4
    63.7
    89.0
   100.5
   208.7
   194.4
   223.0
    81.5
     0.0
     0.0
   300.6
   300.6
    81.5
     0.0
     0.0
   323.8
   300.6
   347.0
    47.2
     0.0
     0.0
   259.8
   259.8
    62.0
     0.0
    80.7
   348.1
   349.2
   342.7
   352.5
    80.7
     0.0
     0.0
   342.7
   342.7
    69.7
     0.0
     0.0
   341.5
   341.5
    81.5
    80.2
     0.0
   372.4
   367.4
   377.4
    65.5
    90.8
    91.0
   363.0
   358.8
   367.2
    58.3
   100.5
    76.9
   366.9
   369.3
   361.9
   369.3
    81.6
     0.0
     0.0
   312.0
   312.0
    63.1
    89.1
    89.4
   368.1
   369.0
   367.2
    81.1
     0.0
     0.0
   323.4
   323.4
    76.6
    81.5
     0.0
   334.8
   339.7
   347.0
   308.1
    81.6
     0.0
     0.0
   312.4
   312.4
    61.3
    88.7
    79.1
   360.8
   364.9
   356.7
    65.5
    67.9
    90.8
   324.6
   358.8
   290.5
    67.2
     0.0
     0.0
   251.7
   251.7
    62.9
    88.6
   100.3
   222.8
   222.8
   222.8
    72.6
    87.0
     0.0
   368.2
   362.6
   365.6
   373.9
    74.5
     0.0
     0.0
   326.2
   302.1
   350.4
    78.2
     0.0
     0.0
   339.1
   357.6
   320.6
    40.2
   105.8
    78.2
   246.2
   246.2
    81.6
    81.1
     0.0
   338.9
   323.4
   354.3
    65.9
    90.6
    81.6
   361.4
   366.9
   356.0
    51.8
    84.4
    80.3
   362.7
   356.6
   368.7
    63.1
    89.2
    84.4
   349.1
   359.4
   338.7
    80.6
    72.6
     0.0
   368.8
   368.8
    58.3
    76.9
     0.0
   361.9
   361.9
    72.8
     0.0
     0.0
   348.9
   337.5
   360.2
    84.4
     0.0
     0.0
   350.0
   363.8
   336.2
    57.0
     0.0
    63.1
   216.2
   216.2
    61.4
     0.0
     0.0
   345.6
   345.6
    61.4
     0.0
    81.6
   340.6
   349.7
   312.0
   354.9
    63.7
    79.7
     0.0
   341.0
   350.0
   315.8
   353.6
    61.4
    81.6
    89.0
   360.6
   366.3
   354.9
    74.5
     0.0
     0.0
   302.1
   302.1
    91.0
   100.5
    87.0
   298.0
   191.7
   373.0
   223.0
    79.5
    81.6
     0.0
   362.9
   354.9
   370.9
    90.0
    79.9
     0.0
   363.4
   358.5
   368.4
   100.8
   100.5
    91.0
   296.5
   223.0
   370.0
    65.9
     0.0
     0.0
   352.6
   352.6
    90.4
     0.0
     0.0
   345.0
   362.4
   327.5
   100.8
    79.1
    88.7
   368.4
   369.9
   364.9
   369.7
    96.1
    84.4
    89.2
   367.4
   370.5
   359.4
   368.9
    95.1
    91.0
    80.6
   367.7
   369.8
   359.9
   370.6
    51.8
    80.3
    95.1
   366.1
   366.1
    48.9
    93.0
   100.2
   367.6
   369.1
   369.0
   363.3
    63.1
     0.0
    83.6
   305.0
   319.7
   291.7
   300.8
    83.6
     0.0
     0.0
   291.7
   291.7
    93.3
    81.5
    76.6
   334.9
   361.6
   308.1
    62.0
    47.2
     0.0
   287.7
   287.7
    62.0
    76.6
    47.2
   321.3
   354.9
   287.7
   100.2
   100.2
    79.9
   366.5
   357.5
   369.1
   369.0
    69.7
    80.7
     0.0
   346.9
   341.5
   352.3
    79.5
     0.0
     0.0
   333.1
   354.9
   311.4
    79.5
     0.0
     0.0
   311.4
   311.4
    65.5
     0.0
    67.9
   290.5
   290.5
   100.5
    88.7
   100.2
   363.9
   369.4
   363.4
   354.7
    88.6
     0.0
     0.0
   350.8
   337.5
   364.1
    61.5
    90.7
   100.3
   222.8
   222.8
   222.8
   100.0
    81.6
    79.5
   293.7
   222.5
   370.9
   222.5
    63.1
    89.4
    69.7
   362.8
   358.3
   367.2
    81.1
    79.5
     0.0
   374.2
   374.2
    74.5
    90.7
     0.0
   357.0
   351.4
   362.6
    78.2
    74.5
     0.0
   362.3
   357.6
   350.4
   371.9
    65.9
    81.6
     0.0
   342.2
   352.6
   312.4
   356.0
    65.5
    89.1
    83.6
   355.9
   359.9
   341.3
   363.4
   100.3
    89.1
    91.0
   360.7
   369.1
   364.7
   336.3
    89.0
    91.0
    90.8
   367.8
   362.3
   367.2
   370.9
    62.9
   100.3
    67.2
   265.4
   222.8
   222.8
   350.1
    61.5
    88.6
     0.0
   364.8
   364.1
   365.5
   100.5
    89.0
    76.9
   369.3
   369.3
   369.3
   369.4
    76.8
     0.0
     0.0
   349.2
   365.8
   332.6
    76.8
     0.0
     0.0
   351.9
   332.6
   371.3
    94.3
    74.5
    78.2
   371.7
   371.9
   371.4
   105.8
    76.8
    78.7
   372.7
   377.9
   358.2
   383.1
    94.3
   100.3
    90.7
   272.0
   366.9
   222.8
   222.8
     0.0
    76.8
     0.0
   339.0
   371.3
   306.8
    63.7
   100.5
    79.7
   274.7
   223.0
   353.6
   223.0
   100.5
   100.5
    87.0
   280.5
   191.7
   369.3
    96.0
    72.8
    79.7
   367.0
   367.8
   366.2
     0.0
     0.0
    72.8
   366.0
   360.2
   371.9
    84.6
    72.8
    96.0
   367.6
   368.0
   367.3
   100.5
    96.0
    79.7
   284.4
   223.0
   366.2
   223.0
   100.5
    96.0
   100.5
   296.0
   369.0
   223.0
   100.8
    89.2
    79.1
   368.3
   363.7
   369.9
   369.8
    61.3
   100.2
    88.7
   365.6
   363.4
   367.7
   100.5
    84.6
    96.0
   368.7
   369.0
   367.3
   369.6
    84.6
     0.0
     0.0
   356.6
   364.5
   348.8
   100.0
    89.0
    81.6
   295.1
   222.5
   366.3
   222.5
    91.0
    87.0
    72.6
   373.4
   373.9
   373.0
    91.0
    72.6
    80.6
   369.3
   368.8
   369.8
    57.0
    63.1
    84.4
   277.5
   338.7
   216.2
    61.3
    79.1
     0.0
   348.4
   350.7
   336.1
   356.7
   100.4
   100.5
   100.8
   273.4
   222.9
   369.3
   222.9
    51.8
    95.1
    80.6
   358.7
   349.5
   359.9
   366.1
   100.2
   100.8
    91.0
   306.2
   222.7
   370.0
   222.7
   100.2
    79.9
    90.0
   363.4
   368.4
   369.1
   347.7
    63.1
   100.2
    90.0
   358.3
   347.7
   368.9
    93.3
    80.2
    81.5
   371.8
   372.6
   377.4
   361.6
    89.4
    80.7
    69.7
   358.6
   365.0
   352.3
    48.9
   100.2
    63.1
   361.2
   368.9
   369.0
   339.3
   100.6
   100.2
    93.0
   369.1
   369.1
   369.1
   369.0
    63.1
    69.7
     0.0
   358.3
   358.3
    97.7
    80.7
    89.4
   366.5
   367.9
   365.0
    93.3
    93.0
    80.2
   372.1
   372.6
   371.7
   100.5
   100.8
    88.7
   369.6
   369.4
   369.7
   369.7
    96.1
    96.5
    80.3
   369.1
   369.1
    99.5
    76.6
    89.9
   369.3
   369.9
   368.7
   369.3
   100.2
   100.2
   100.2
   369.0
   369.0
    96.1
    80.3
    84.4
   369.6
   370.5
   368.7
    61.4
    89.0
    90.8
   336.9
   311.5
   362.3
    67.2
   100.3
    90.4
   222.8
   222.8
   222.8
   100.4
    79.5
    81.1
   370.6
   366.7
   374.2
   369.4
   100.2
    81.1
    81.6
   269.4
   222.7
   354.3
   222.7
   100.1
    89.4
    89.1
   368.9
   368.9
   369.0
   368.9
    61.5
   100.3
    88.6
   283.5
   222.8
   365.5
   222.8
   100.3
    90.6
    90.4
   296.7
   367.0
   222.8
   222.8
   100.3
   100.1
    89.1
   369.0
   369.1
   368.9
   368.9
   100.2
    89.0
   100.0
   275.8
   369.0
   222.5
   222.5
   100.4
    89.9
   100.1
   273.8
   222.9
   365.6
   222.9
   100.4
   100.0
    79.5
   273.4
   366.7
   222.5
   222.5
   100.2
   100.4
    81.1
   310.3
   222.7
   369.4
   222.7
    90.6
   100.2
    81.6
   282.2
   366.9
   222.7
   222.7
   100.2
   100.2
   100.0
   222.6
   222.5
   222.5
   222.7
    94.3
    90.7
    74.5
   364.7
   362.6
   366.9
   100.1
    88.6
   100.2
   293.7
   222.6
   364.7
   100.1
   100.3
    88.6
   222.7
   222.6
   222.8
   222.6
   100.2
   100.2
    90.6
   295.9
   222.7
   369.1
   100.8
    96.1
    89.2
   369.6
   369.8
   368.9
   369.9
   100.6
    94.3
    78.2
   367.7
   358.3
   371.4
   369.8
   100.3
   100.2
    88.6
   279.2
   222.8
   364.7
   222.8
   100.2
    95.1
    96.5
   368.5
   369.1
   366.3
   369.2
   105.8
   100.6
    78.2
   363.9
   358.3
   369.5
     0.0
    76.8
     0.0
   306.8
   306.8
   100.4
   100.6
   100.4
   369.2
   369.2
    84.1
   100.6
    78.7
   361.8
   369.7
   369.7
   329.1
   100.4
    89.0
   100.4
   296.1
   222.9
   369.4
    87.9
    84.6
   100.5
   369.3
   368.9
   369.6
   369.5
   105.8
    78.7
   100.6
   375.5
   369.5
   369.7
   383.1
     0.0
    78.7
    76.8
   346.7
   358.2
   335.3
   100.8
   100.5
   100.5
   369.3
   369.3
    84.6
     0.0
    72.8
   368.3
   368.0
   371.9
   364.5
   100.5
   100.5
    89.0
   280.7
   194.4
   366.9
   100.4
    89.0
   100.5
   369.4
   369.4
   369.4
   369.3
   100.7
   100.3
   100.5
   279.2
   223.1
   369.2
   223.2
   100.3
   100.8
   100.2
   222.7
   222.8
   222.7
   222.7
   100.6
   100.5
    89.0
   368.9
   369.7
   366.9
   369.4
   100.2
    91.0
    95.1
   369.6
   369.2
   370.6
   369.1
    96.5
    95.1
    80.3
   366.3
   366.3
   100.4
   100.4
    93.0
   369.2
   369.2
   369.2
   100.4
   100.6
    93.0
   369.1
   369.2
   369.0
    96.5
   100.5
   100.6
   369.1
   369.5
   369.4
   367.9
   100.2
   100.5
   100.2
   354.7
   354.7
   100.6
   100.2
   100.2
   295.9
   369.1
   222.7
   100.8
    96.1
   100.8
   369.7
   369.7
   369.9
   369.7
   100.4
    93.0
    93.3
   370.2
   371.7
   369.2
   369.2
    99.5
    93.3
    76.6
   369.9
   369.9
    97.7
    89.9
    80.7
   367.6
   366.4
   367.9
   368.4
   100.4
   100.2
   100.6
   283.4
   222.7
   222.7
   369.4
    97.7
   100.1
   100.4
   369.1
   369.0
   368.9
   369.3
   100.5
   100.3
   100.1
   222.7
   222.8
   222.6
   222.6
   100.5
   100.6
   100.4
   357.7
   369.4
   346.1
   100.2
   100.6
   100.5
   369.0
   368.9
   369.4
   368.9
   100.2
   100.2
   100.4
   222.7
   222.7
    99.5
   100.4
    93.3
   369.2
   369.2
   369.2
   100.4
   100.4
    99.5
   296.1
   369.2
   222.9
    96.5
    86.5
    87.9
   364.2
   360.3
   368.1
   100.2
   100.6
   100.3
   369.1
   369.1
   369.1
   369.1
   100.3
    91.0
    89.0
   361.1
   370.9
   336.3
   369.3
   100.2
   100.3
    89.0
   369.2
   369.0
   369.3
   369.2
    97.7
   100.4
   100.1
   369.3
   369.3
   369.3
   100.2
   100.0
   100.4
   222.6
   222.5
   222.5
   222.7
   100.2
   100.4
   100.2
   222.7
   222.7
   222.7
   100.1
   100.3
   100.2
   295.9
   369.2
   222.6
   100.4
   100.5
   100.4
   369.2
   369.2
   100.5
   100.6
    96.5
   368.5
   366.5
   369.3
   369.4
   100.3
    90.6
   100.3
   292.1
   361.4
   222.8
   100.3
   100.2
    90.6
   367.7
   361.4
   369.1
   369.0
   100.3
   100.2
   100.2
   369.1
   369.1
   100.1
   100.2
   100.1
   222.6
   222.6
   222.6
   100.2
   100.2
   100.2
   295.8
   222.7
   369.0
   100.5
   100.2
   100.3
   295.9
   369.0
   222.8
   100.1
   100.3
    94.3
   222.7
   222.7
   222.8
   222.6
   100.5
   100.1
   100.2
   295.8
   369.0
   222.6
   100.5
   100.1
   100.4
   295.9
   222.6
   369.2
   100.4
   100.1
   100.5
   296.1
   222.6
   369.5
   100.1
   100.5
   100.3
   222.6
   222.7
   222.6
   100.4
   100.1
    94.3
   307.6
   369.2
   222.6
   222.6
   100.5
   100.2
   100.7
   369.3
   369.1
   369.0
   369.5
   100.4
    94.3
   100.6
   369.4
   369.8
   369.2
   369.2
     0.0
    78.7
     0.0
   335.3
   335.3
    84.1
   100.4
   100.6
   296.3
   369.7
   222.9
     0.0
    84.1
    78.7
   329.1
   329.1
    81.0
    84.1
     0.0
   354.9
   354.9
   100.7
   100.7
   100.5
   223.2
   223.2
   223.2
   100.8
   100.5
   100.4
   369.3
   369.3
   100.4
   100.6
    89.0
   296.3
   222.9
   369.7
    57.0
     0.0
     0.0
   203.5
   203.5
    58.0
    57.0
    84.6
   339.2
   360.1
   318.3
   100.4
   100.4
   100.5
   281.1
   222.9
   369.3
   222.9
   100.5
    96.5
    96.1
   369.1
   369.1
   369.3
   368.9
   100.4
   100.8
   100.3
   222.8
   222.8
   222.9
   222.9
   100.2
    96.5
   100.6
   368.5
   366.5
   369.2
   369.1
   100.4
   100.6
   100.4
   369.1
   369.1
   100.6
   100.3
   100.2
   222.7
   222.7
   222.8
   100.4
   100.3
   100.6
   296.1
   222.8
   369.4
   100.7
   100.8
   100.8
   369.7
   369.7
   100.5
   100.4
   100.4
   357.6
   346.1
   369.2
   100.4
   100.5
   100.4
   369.2
   369.2
   100.8
   100.5
    96.1
   369.4
   369.7
   368.9
   369.4
   100.3
   100.6
   100.6
   369.2
   369.4
   369.2
   369.1
   100.7
   100.5
   100.3
   278.8
   223.2
   369.2
   223.1
   100.3
   100.5
   100.2
   295.9
   369.2
   222.7
   100.4
   100.4
    99.5
   252.1
   321.2
   222.9
   222.9
   100.4
   100.3
   100.2
   286.3
   222.7
   222.7
   369.2
   100.2
   100.3
   100.4
   300.1
   369.2
   231.0
   100.4
    99.5
    89.9
   288.9
   222.9
   369.3
   222.9
   100.1
   100.1
   100.3
   368.9
   368.9
   368.9
   100.1
   100.2
   100.2
   222.7
   222.7
   222.7
   100.3
   100.1
   100.2
   222.6
   222.7
   222.6
   100.4
   100.4
    99.5
   272.0
   222.9
   321.2
   100.3
   100.4
   100.4
   276.7
   222.9
   222.9
   369.2
   100.2
   100.2
   100.4
   231.0
   231.0
   100.4
   100.3
   100.4
   369.2
   369.2
   369.2
   369.3
   100.4
   100.4
   100.1
   281.7
   369.3
   222.9
   222.9
   100.1
   100.4
   100.1
   368.9
   368.9
   368.8
   100.1
   100.1
   100.3
   368.9
   368.9
   100.2
   100.1
   100.1
   368.9
   368.9
   100.1
   100.4
   100.1
   295.7
   368.8
   222.6
   100.4
   100.4
   100.4
   275.2
   369.1
   222.9
   222.9
   100.4
    96.5
   100.6
   369.0
   369.4
   367.9
   369.4
   100.1
   100.6
   100.6
   296.0
   222.6
   369.4
   100.7
   100.2
   100.2
   369.0
   369.0
   369.0
   100.2
   100.2
   100.3
   369.1
   369.0
   369.1
   100.2
   100.1
   100.3
   272.9
   222.6
   222.6
   369.1
    81.0
   100.4
    84.1
   264.7
   222.9
   222.9
   354.9
   100.2
   100.7
   100.2
   369.0
   369.0
   100.3
   100.2
   100.4
   369.1
   369.1
   369.0
   369.2
   100.6
   100.5
   100.1
   273.6
   369.4
   222.6
   222.6
   100.4
   100.2
   100.3
   369.1
   369.1
   369.0
   100.3
   100.5
   100.7
   369.3
   369.0
   369.5
   369.1
   100.5
   100.4
   100.6
   369.4
   369.4
   369.2
   369.4
   100.5
   100.2
   100.3
   369.1
   369.2
   369.1
   369.1
   100.3
   100.3
   100.2
   369.1
   369.1
   100.3
   100.6
   100.5
   271.5
   223.1
   223.1
   369.1
   100.2
   100.3
   100.6
   369.1
   368.9
   369.2
   369.1
   100.6
   100.4
   100.5
   369.5
   369.4
   369.5
   369.5
   101.0
   100.1
   100.5
   296.0
   222.6
   369.4
   100.4
   100.5
   100.4
   255.2
   327.4
   222.9
   222.9
   100.4
   100.4
   100.5
   286.4
   222.9
   369.3
   222.9
    81.0
   100.5
   100.4
   296.2
   222.9
   369.5
     0.0
    81.0
     0.0
   364.9
   364.9
   100.4
   100.8
   100.5
   296.2
   369.4
   222.9
    93.0
   100.5
    81.0
   368.8
   369.3
   369.5
   367.6
    96.5
    87.9
   100.5
   369.1
   369.5
   369.5
   368.1
    58.0
     0.0
     0.0
   356.2
   356.2
    60.0
    58.0
    87.9
   344.1
   348.0
   340.1
   100.4
   100.4
   100.4
   222.9
   222.9
   100.4
   100.6
   100.4
   369.2
   369.1
   369.4
   100.6
   100.8
   100.7
   223.1
   223.1
   223.1
   100.2
   100.4
   100.6
   369.1
   368.9
   369.4
   368.9
   100.5
   100.6
   100.7
   223.1
   223.2
   223.1
   223.1
   100.1
   100.4
   100.6
   279.9
   222.6
   369.4
   222.6
   100.4
   100.4
   100.4
   369.2
   369.2
   369.1
   369.3
   100.2
   100.2
   100.2
   368.9
   368.9
   100.6
   100.8
   100.6
   296.2
   369.3
   223.1
   100.4
   100.4
   100.4
   296.1
   222.9
   369.3
   100.2
   100.2
   100.4
   368.9
   368.9
   100.6
   100.6
   100.4
   222.9
   222.9
   222.9
   100.6
   100.8
   100.4
   369.3
   369.1
   369.1
   369.7
   100.2
   100.5
   100.3
   300.1
   369.2
   231.0
   100.1
   100.4
   100.4
   280.7
   222.6
   369.3
   222.6
   100.4
   100.4
   100.3
   275.4
   222.9
   222.9
   369.1
   100.8
   100.7
   100.8
   348.6
   369.6
   369.5
   274.1
   100.8
   100.4
   100.4
   296.0
   222.9
   369.1
   100.6
   100.4
   100.4
   296.0
   369.1
   222.9
   100.2
   100.2
   100.2
   231.0
   231.0
   100.5
   100.4
   100.1
   276.2
   222.6
   222.6
   369.3
   100.2
   100.8
   100.2
   369.1
   369.0
   369.1
   100.1
   100.1
   100.2
   222.6
   222.6
   222.6
   222.6
   100.1
   100.3
   100.4
   295.9
   369.2
   222.6
   100.4
   100.6
   100.4
   288.3
   222.9
   222.9
   369.2
   100.7
   100.3
   100.3
   222.8
   222.8
   100.2
   100.5
   100.2
   300.0
   368.9
   231.0
   100.2
   100.2
   100.1
   273.7
   222.6
   222.6
   369.0
   100.2
   100.1
   100.1
   286.4
   368.9
   222.6
   222.6
   100.1
   100.1
   100.2
   295.8
   222.6
   368.9
   100.1
   100.2
   100.2
   283.6
   368.9
   222.6
   222.6
   100.2
   100.2
   100.6
   369.0
   369.1
   368.9
   100.5
   100.3
   100.2
   369.1
   369.1
   369.1
   369.2
   100.3
   100.7
   100.2
   369.0
   369.0
   369.0
   100.2
   100.2
   100.5
   369.1
   369.0
   369.1
   100.4
   100.4
   100.5
   369.3
   369.3
   369.2
   369.3
   100.2
   100.6
   100.2
   368.9
   368.9
   368.9
   100.6
   100.4
   100.7
   369.4
   369.4
   369.4
   100.3
   100.4
   100.6
   369.3
   369.1
   369.5
   369.1
   100.4
   100.3
   100.3
   369.1
   369.1
   369.1
   100.6
   100.7
   100.5
   369.5
   369.5
   369.4
   100.3
   100.3
   100.3
   340.2
   340.2
   100.2
   100.2
   100.2
   369.0
   369.0
   100.3
   100.7
   100.4
   369.2
   369.1
   369.4
   369.1
   100.3
   100.3
   100.6
   354.6
   369.1
   340.2
   101.0
   100.3
   100.6
   369.3
   369.3
   100.8
   100.8
   100.3
   274.1
   274.1
   100.4
   100.7
   100.3
   369.2
   369.4
   369.1
   369.1
    71.5
    81.0
     0.0
   358.5
   352.2
   364.9
   100.4
   100.5
    93.0
   369.3
   369.4
   369.3
   369.2
   100.4
   100.4
   100.5
   283.8
   369.4
   222.9
   222.9
    71.5
    93.0
    81.0
   359.9
   352.2
   367.6
     0.0
    71.5
     0.0
   352.2
   352.2
    82.2
    71.5
     0.0
   352.6
   353.0
   352.2
   100.2
   100.4
   100.3
   369.1
   369.1
   100.2
   100.6
   100.3
   369.1
   369.0
   369.1
    89.8
    86.5
    96.5
   365.2
   360.6
   369.8
    63.8
    60.0
    89.8
   360.1
   360.5
   359.7
    60.0
     0.0
     0.0
   371.4
   371.4
   100.7
    89.8
    96.5
   369.9
   369.7
   369.8
   370.0
    90.5
    89.8
   100.7
   368.8
   363.8
   370.0
   370.0
   100.4
   100.4
   100.7
   369.5
   369.6
   369.3
   100.6
   100.4
   100.4
   244.8
   222.9
   222.9
   296.2
   100.5
   100.6
   100.2
   369.2
   369.4
   369.0
   100.3
   100.6
   100.6
   223.1
   223.1
   223.1
   100.3
   100.5
   100.4
   369.2
   369.2
   100.4
   100.2
   100.2
   222.7
   222.7
   100.6
   100.3
   100.4
   332.6
   296.2
   369.1
   100.4
   100.4
   100.1
   293.7
   369.4
   222.6
   222.6
   100.6
   100.6
   100.3
   369.2
   369.4
   369.1
   369.1
   100.2
   100.5
   100.8
   369.1
   369.0
   369.3
   369.0
   100.3
   100.3
   100.5
   369.1
   369.1
   100.2
   100.2
   100.2
   300.0
   231.0
   368.9
   100.2
   100.3
   100.5
   295.9
   368.9
   222.8
   100.2
   100.1
   100.2
   368.9
   368.9
   368.9
   369.0
   100.2
   100.4
   100.6
   346.5
   369.4
   323.7
   100.4
   100.8
   100.6
   369.5
   369.3
   369.7
   369.4
   100.2
   100.8
   100.4
   369.1
   369.1
   369.3
   369.0