# vtk DataFile Version 3.0
Landscape
ASCII
DATASET UNSTRUCTURED_GRID
POINTS      26478 float
           0.000           0.000           0.000
        1600.000           0.000           0.000
           0.000        1600.000           0.000
         533.333         533.333           0.000
        1820.535        1836.129         182.142
        1600.000           0.000           0.000
        3200.000           0.000           0.000
        2206.845         612.043         368.484
        1765.668        1379.321         368.484
        4436.497        1560.645         234.212
        3200.000           0.000           0.000
        4800.000           0.000           0.000
        4145.499         520.215         358.518
        4504.051        1270.612         358.518
        6234.052        1737.813          60.545
        4800.000           0.000           0.000
        6400.000           0.000           0.000
        5811.350         579.271         367.960
        5686.122        1073.821         367.960
        8231.839        1585.959         205.793
        6400.000           0.000           0.000
        8000.000           0.000           0.000
        8011.470        1241.751         382.626
        7842.454        1248.840         413.344
        8180.485        1234.662         351.908
        8231.839        1585.959         205.793
        8000.000           0.000           0.000
        9600.000           0.000           0.000
        8610.613         528.653         351.908
        8180.485        1234.662         351.908
       10114.256        2299.635         181.446
       10506.534         877.165          59.755
       11192.297        1979.624         142.637
       10604.362        1718.808         387.777
       10604.738        2154.038         387.777
       11192.297        1979.624         142.637
       11200.000           0.000           0.000
       12800.000           0.000           0.000
       11405.203        1435.747         390.142
       11194.500        1413.476         369.838
       11615.906        1458.018         410.447
       14535.388        1860.001          62.108
       12800.000           0.000           0.000
       14400.001           0.000           0.000
       14180.129        1155.679         363.517
       13875.957        1153.218         385.411
       14484.301        1158.140         341.623
       14535.388        1860.001          62.108
       14400.001           0.000           0.000
       16000.000           0.000           0.000
       14978.463         620.000         341.623
       14484.301        1158.140         341.623
       17224.315        1919.917         405.580
       16000.000           0.000           0.000
       17600.000           0.000           0.000
       16941.438         639.972         415.795
       17225.705        1912.813         415.795
       18961.790        1751.968          29.759
       17600.000           0.000           0.000
       19200.000           0.000           0.000
       18587.263         583.989         353.089
       18372.509         993.848         353.089
        4436.497        1560.645         234.212
        1820.535        1836.129         182.142
        3200.000           0.000           0.000
        3152.344        1132.258         563.453
        3378.590        1672.052         563.453
       23731.335        1792.943         224.071
       22400.000           0.000           0.000
       24000.001           0.000           0.000
       23377.112         597.648         373.277
       23785.717        1430.023         373.277
       25712.931        1511.197          50.205
       24000.001           0.000           0.000
       25599.999           0.000           0.000
       25104.310         503.732         365.767
       25028.833         907.666         365.767
       25712.931        1511.197          50.205
       27200.000           0.000           0.000
       27507.238        1603.221         223.386
       26806.723        1038.139         377.177
       26307.944         906.530         355.669
       27445.407        1280.577         359.248
       27029.206        1578.704         416.891
       27507.238        1603.221         223.386
       27200.000           0.000           0.000
       28800.001           0.000           0.000
       27835.746         534.407         359.248
       27445.407        1280.577         359.248
       30065.602        1613.570         336.188
       28800.001           0.000           0.000
       30400.000           0.000           0.000
       29755.201         537.857         412.277
       29961.421        1480.744         412.277
       31040.554         771.051         251.923
       30065.602        1613.570         336.188
       30400.000           0.000           0.000
       30709.439         983.297         422.962
       30969.088         685.026         303.608
       30449.790        1281.568         542.316
       31415.600        1997.898         135.065
       33371.579        1994.991          37.116
       33224.678        2857.386          51.220
       32073.484        2150.531         409.462
       32086.735        1996.900         402.654
       32060.234        2304.162         416.271
       34548.701        1811.800         224.571
       34459.486        2336.808         170.798
       33371.579        1994.991          37.116
       34126.589        2047.867         310.675
       34515.949        2004.536         310.675
        6234.052        1737.813          60.545
        6043.012        3262.445         123.326
        5160.666        3300.186         235.702
        5812.577        2766.815         359.570
        5454.343        3287.625         359.570
       37099.539        1414.823         308.117
       35200.000           0.000           0.000
       36800.001           0.000           0.000
       36366.513         471.608         428.792
       36872.056        1245.388         428.792
       37099.539        1414.823         308.117
       36800.001           0.000           0.000
       38399.999           0.000           0.000
       37433.180         471.608         400.435
       37241.506        1260.372         400.435
       39191.316         917.871          39.482
       38399.999           0.000           0.000
       40000.000           0.000           0.000
       39197.105         305.957         257.278
       38837.595         507.580         257.278
       40125.312        1643.514          38.860
       41599.998           0.000           0.000
       41840.942        1855.796         391.681
       41188.751        1166.437         393.301
       40744.764         953.144         358.111
       41836.593        1822.303         411.410
       41737.609        1843.011         438.431
       41840.942        1855.796         391.681
       41599.998           0.000           0.000
       43200.002           0.000           0.000
       42213.647         618.599         411.410
       41836.593        1822.303         411.410
       43418.644        1867.336          53.472
       43200.002           0.000           0.000
       44800.000           0.000           0.000
       43806.215         622.445         340.768
       43332.273        1129.673         340.768
       34548.701        1811.800         224.571
       37099.539        1414.823         308.117
       36841.038        3085.085         147.337
       36163.093        2103.903         562.153
       36218.742        1551.898         616.138
       37028.331        1874.923         498.635
       35363.814        2264.557         540.680
       48116.282        1628.322         150.611
       49600.000           0.000           0.000
       49975.028        1831.460         247.946
       49230.437        1153.260         432.377
       48523.472        1181.447         392.527
       49908.564        1506.879         386.770
       49341.750        1762.250         504.163
       10114.256        2299.635         181.446
        8231.839        1585.959         205.793
       10506.534         877.165          59.755
        8966.015        1651.602         490.083
        9084.308        1909.154         516.902
        8847.722        1394.050         463.263
       52954.322        1538.422         132.285
       52800.002           0.000           0.000
       54400.001           0.000           0.000
       53384.775         512.807         330.693
       52905.304        1049.761         330.693
       55816.240        1531.934         174.747
       54400.001           0.000           0.000
       55999.999           0.000           0.000
       55659.959        1133.363         365.319
       55454.938        1141.117         388.893
       55864.980        1125.610         341.745
       55816.240        1531.934         174.747
       55999.999           0.000           0.000
       57600.002           0.000           0.000
       56472.081         510.645         341.745
       55864.980        1125.610         341.745
       38196.713        1837.356          83.350
       37099.539        1414.823         308.117
       38399.999           0.000           0.000
       37898.751        1084.060         375.811
       38269.349        1180.851         346.637
       37241.506        1260.372         400.435
       37305.328        1494.075         404.648
       59004.449        1641.677          36.575
       57600.002           0.000           0.000
       59200.001           0.000           0.000
       58601.484         547.226         315.958
       59087.398         945.310         315.958
       25712.931        1511.197          50.205
       25600.029        2863.835         100.372
       23731.335        1792.943         224.071
       24271.268        1917.425         457.158
       24294.075        2115.432         481.392
       24248.461        1719.418         432.923
[...]
POINT_DATA      26478
SCALARS height float 1
LOOKUP_TABLE default
     0.0
     0.0
     0.0
     0.0
   182.1
     0.0
     0.0
   368.5
   368.5
   234.2
     0.0
     0.0
   358.5
   358.5
    60.5
     0.0
     0.0
   368.0
   368.0
   205.8
     0.0
     0.0
   382.6
   413.3
   351.9
   205.8
     0.0
     0.0
   351.9
   351.9
   181.4
    59.8
   142.6
   387.8
   387.8
   142.6
     0.0
     0.0
   390.1
   369.8
   410.4
    62.1
     0.0
     0.0
   363.5
   385.4
   341.6
    62.1
     0.0
     0.0
   341.6
   341.6
   405.6
     0.0
     0.0
   415.8
   415.8
    29.8
     0.0
     0.0
   353.1
   353.1
   234.2
   182.1
     0.0
   563.5
   563.5
   224.1
     0.0
     0.0
   373.3
   373.3
    50.2
     0.0
     0.0
   365.8
   365.8
    50.2
     0.0
   223.4
   377.2
   355.7
   359.2
   416.9
   223.4
     0.0
     0.0
   359.2
   359.2
   336.2
     0.0
     0.0
   412.3
   412.3
   251.9
   336.2
     0.0
   423.0
   303.6
   542.3
   135.1
    37.1
    51.2
   409.5
   402.7
   416.3
   224.6
   170.8
    37.1
   310.7
   310.7
    60.5
   123.3
   235.7
   359.6
   359.6
   308.1
     0.0
     0.0
   428.8
   428.8
   308.1
     0.0
     0.0
   400.4
   400.4
    39.5
     0.0
     0.0
   257.3
   257.3
    38.9
     0.0
   391.7
   393.3
   358.1
   411.4
   438.4
   391.7
     0.0
     0.0
   411.4
   411.4
    53.5
     0.0
     0.0
   340.8
   340.8
   224.6
   308.1
   147.3
   562.2
   616.1
   498.6
   540.7
   150.6
     0.0
   247.9
   432.4
   392.5
   386.8
   504.2
   181.4
   205.8
    59.8
   490.1
   516.9
   463.3
   132.3
     0.0
     0.0
   330.7
   330.7
   174.7
     0.0
     0.0
   365.3
   388.9
   341.7
   174.7
     0.0
     0.0
   341.7
   341.7
    83.3
   308.1
     0.0
   375.8
   346.6
   400.4
   404.6
    36.6
     0.0
     0.0
   316.0
   316.0
    50.2
   100.4
   224.1
   457.2
   481.4
   432.9
   251.8
     0.0
     0.0
   393.8
   412.7
   374.9
    35.1
     0.0
     0.0
   238.6
   238.6
   246.7
    71.1
   139.8
   483.4
   483.4
    62.1
   142.6
     0.0
   437.5
   385.4
   410.4
   493.8
    88.2
     0.0
     0.0
   338.6
   310.4
   366.7
   160.3
     0.0
     0.0
   373.6
   398.5
   348.8
    78.2
   360.4
   160.3
   385.5
   385.5
   318.7
    36.6
     0.0
   360.3
   316.0
   404.7
   157.7
   350.1
   318.7
   598.1
   670.9
   525.2
    29.8
   309.8
    61.2
   464.4
   429.3
   499.5
   122.6
   274.9
   309.8
   516.2
   579.0
   453.4
   405.6
    62.1
     0.0
   512.6
   512.6
    59.8
   205.8
     0.0
   463.3
   463.3
   182.1
     0.0
     0.0
   434.4
   368.5
   500.3
   309.8
     0.0
     0.0
   411.3
   432.7
   389.9
   144.7
     0.0
   122.6
   294.6
   294.6
    27.3
     0.0
     0.0
   346.4
   346.4
    27.3
     0.0
   132.3
   358.5
   354.9
   330.7
   385.6
    60.5
   234.2
     0.0
   385.9
   368.0
   358.5
   427.9
    27.3
   132.3
    57.0
   412.2
   438.8
   385.6
    88.2
     0.0
     0.0
   310.4
   310.4
    89.1
   208.6
   142.6
   527.0
   514.9
   539.0
   174.7
   132.3
     0.0
   457.9
   388.9
   526.9
   336.2
   223.4
     0.0
   515.8
   412.3
   619.4
   370.1
   208.6
    89.1
   552.5
   539.0
   566.1
   318.7
     0.0
     0.0
   377.7
   377.7
   157.7
     0.0
     0.0
   400.7
   400.7
   165.8
   491.3
   100.4
   504.0
   504.0
   109.7
   309.8
   274.9
   547.0
   555.9
   579.0
   522.6
   225.7
    89.1
   405.6
   541.3
   537.3
   571.4
   523.7
    29.8
    61.2
   225.7
   435.8
   435.8
   135.1
    16.7
    37.1
   402.7
   402.7
    72.6
   146.9
    83.5
   462.5
   480.2
   444.7
   150.6
   398.6
   146.9
   512.8
   536.0
   489.5
   147.3
   308.1
    83.3
   451.6
   404.6
   498.6
    38.9
    39.5
     0.0
   276.2
   276.2
    38.9
    83.3
    39.5
   330.3
   384.4
   276.2
   253.8
   332.4
   223.4
   621.0
   546.2
   613.5
   661.3
    53.5
   391.7
     0.0
   389.7
   340.8
   438.5
   150.6
    72.6
     0.0
   402.1
   326.4
   403.6
   467.9
   260.0
   100.4
   332.4
   506.9
   461.9
   551.9
   139.8
     0.0
     0.0
   381.1
   357.9
   404.3
    98.3
    43.1
   324.1
   416.2
   416.2
   240.5
   132.3
   174.7
   555.2
   526.9
   583.5
    72.6
    83.5
    53.5
   425.1
   405.4
   444.7
    36.6
   174.7
     0.0
   490.2
   490.2
    88.2
   324.1
     0.0
   445.2
   410.2
   480.2
   160.3
    88.2
     0.0
   434.5
   398.5
   366.7
   502.1
   157.7
   318.7
     0.0
   445.2
   400.7
   377.7
   525.2
   150.6
   146.9
    72.6
   478.7
   489.5
   467.9
   215.1
   398.6
   406.8
   581.9
   511.6
   652.2
    57.0
   398.6
   247.9
   508.9
   635.1
   415.8
   529.8
   246.7
    35.1
    71.1
   443.3
   498.2
   374.6
   483.4
    43.1
   139.8
     0.0
   423.9
   404.3
   443.6
   193.6
   205.8
   321.5
   580.5
   565.6
   591.2
   589.3
   250.2
     0.0
     0.0
   412.0
   441.7
   382.3
   250.2
     0.0
     0.0
   495.3
   382.3
   608.3
   146.2
    88.2
   160.3
   522.7
   502.1
   543.4
   360.4
   250.2
   174.7
   590.6
   647.2
   522.0
   625.9
   146.2
   156.9
   324.1
   543.2
   543.2
   535.7
   548.0
     0.0
   250.2
     0.0
   533.5
   608.3
   458.7
    60.5
   235.7
   234.2
   489.0
   550.1
   427.9
   181.4
   208.6
   321.5
   480.4
   547.5
   413.3
   490.1
   182.1
   234.2
   592.0
   563.5
   620.5
     0.0
     0.0
   182.1
   522.6
   500.3
   544.8
   183.5
   182.1
   490.1
   568.8
   542.3
   595.4
   235.7
   490.1
   234.2
   588.0
   550.1
   620.5
   614.2
   451.1
   490.1
   235.7
   700.7
   787.3
   614.2
   319.5
   491.3
   421.9
   680.2
   725.5
   633.1
   700.0
    50.2
   332.4
   100.4
   461.9
   461.9
   451.1
   183.5
   490.1
   678.2
   787.3
   595.4
   644.8
   183.5
     0.0
     0.0
   469.1
   505.8
   432.4
   240.5
    57.0
   132.3
   440.8
   438.8
   442.7
    89.1
   142.6
    62.1
   504.4
   493.8
   514.9
    89.1
    62.1
   405.6
   524.9
   512.6
   537.3
   144.7
   122.6
   309.8
   374.0
   453.4
   294.6
    50.2
   224.1
     0.0
   390.3
   365.8
   373.3
   432.9
   223.7
   475.0
   157.3
   462.8
   509.2
   416.3
    29.8
   225.7
   405.6
   486.7
   432.9
   571.4
   435.8
   119.8
   225.7
    61.2
   448.5
   448.5
   253.8
   223.4
   336.2
   603.6
   619.4
   613.5
   546.9
   135.1
   336.2
   251.9
   483.2
   470.8
   542.3
   435.6
   195.3
   170.8
   147.3
   518.6
   513.1
   524.0
    83.5
   391.7
    53.5
   469.0
   499.5
   438.5
   135.1
   251.9
    16.7
   410.9
   386.2
   435.6
   135.1
    85.3
   253.8
   487.5
   499.1
   475.8
    72.6
    53.5
     0.0
   405.4
   405.4
   117.1
   391.7
    83.5
   513.6
   527.8
   499.5
   170.8
    51.2
    37.1
   361.1
   361.1
   165.8
   260.0
   325.0
   596.1
   549.5
   642.8
   109.7
   119.8
    61.2
   472.6
   472.6
   459.3
    83.3
    85.8
   503.7
   561.3
   451.4
   539.3
   618.6
   332.4
   253.8
   679.3
   714.5
   661.3
   666.9
   440.6
   370.1
   365.0
   732.3
   763.2
   694.1
   738.3
    27.3
    57.0
   247.9
   415.8
   415.8
    35.1
    90.5
   251.8
   408.2
   408.2
   202.3
   174.7
    36.6
   518.1
   570.7
   490.2
   473.3
    65.2
    36.6
   318.7
   438.9
   404.7
   473.1
   512.4
    83.5
   146.9
   534.8
   480.2
   589.3
    98.3
   139.8
    43.1
   445.9
   448.2
   443.6
    90.5
   350.1
   251.8
   516.6
   630.0
   408.2
   494.7
   323.1
   406.8
   369.9
   686.6
   655.5
   714.2
   682.8
   103.5
    57.0
   240.5
   488.7
   442.7
   534.7
   121.1
   165.1
   459.3
   562.9
   584.5
   541.3
   460.7
   240.5
   174.7
   627.4
   583.5
   671.4
   202.3
    36.6
    65.2
   473.3
   473.3
   350.1
    65.2
   318.7
   563.7
   670.9
   473.1
   523.1
   509.5
   103.5
   240.5
   556.6
   534.7
   578.5
   146.2
   324.1
    88.2
   507.9
   480.2
   535.7
   246.7
   349.0
    90.5
   508.9
   513.3
   504.5
   246.7
    90.5
    35.1
   501.4
   504.5
   498.2
   101.8
    65.2
   350.1
   553.4
   523.1
   583.8
   319.5
   274.9
   491.3
   663.6
   644.3
   647.9
   700.0
   324.3
   160.3
   355.4
   648.2
   613.0
   683.4
    98.3
   532.9
   139.8
   496.6
   448.2
   545.0
   157.3
   370.1
    89.1
   573.2
   566.1
   580.4
   360.4
   355.4
   160.3
   654.7
   654.7
     0.0
   250.2
     0.0
   458.7
   458.7
   324.3
   613.0
   656.4
   791.1
   719.5
   862.8
   335.5
   174.7
   189.8
   507.2
   577.8
   436.6
   278.0
   193.6
   311.2
   551.2
   616.1
   486.2
   236.2
   183.5
   451.1
   617.1
   570.7
   644.8
   662.3
   360.4
   174.7
   355.4
   634.4
   628.1
   654.7
   625.9
     0.0
   174.7
   250.2
   472.2
   522.0
   422.4
   370.1
   321.5
   208.6
   607.7
   667.9
   547.5
   183.5
     0.0
   182.1
   533.1
   542.3
   544.8
   505.8
   278.0
   235.7
   123.3
   462.8
   566.1
   359.6
   278.0
   311.2
   491.1
   631.5
   646.9
   616.1
   170.8
   475.2
    51.2
   481.9
   361.1
   602.7
   475.2
    85.3
    51.2
   484.2
   484.2
   109.7
    61.2
   309.8
   527.7
   555.9
   499.5
   656.3
   537.0
   543.7
   863.6
   802.0
   871.7
   886.3
   278.0
   123.3
   193.6
   486.2
   486.2
   341.1
   451.1
   491.1
   744.8
   744.7
   796.1
   683.4
   223.7
   119.8
   475.0
   557.0
   545.7
   568.2
   618.6
   260.0
   332.4
   633.2
   714.5
   551.9
   297.7
    85.3
   112.6
   497.3
   497.3
   146.7
   578.2
   186.8
   605.6
   605.6
   170.8
   537.9
   475.2
   641.9
   720.8
   602.7
   608.0
   459.3
   147.3
    83.3
   561.3
   561.3
   117.1
    85.8
   391.7
   487.9
   511.4
   527.8
   447.9
   297.7
   112.6
   285.0
   581.6
   581.6
   150.5
   512.4
   184.9
   577.2
   565.1
   589.3
   339.0
   349.0
   598.7
   671.0
   638.0
   717.4
   670.9
   289.3
    85.3
   475.2
   545.4
   484.2
   606.6
   278.9
   112.6
   289.3
   585.5
   540.3
   630.7
   383.1
   509.5
   460.7
   749.4
   806.1
   686.6
   747.9
   195.3
   459.3
   300.1
   657.8
   602.7
   712.9
   195.3
   300.1
   537.9
   648.8
   648.8
   341.1
   223.0
   236.2
   573.1
   525.6
   620.7
   406.8
   398.6
    57.0
   570.9
   529.8
   652.2
   544.5
   103.5
   406.8
    57.0
   556.0
   544.5
   567.5
   150.5
   117.1
    83.5
   454.6
   454.6
   509.5
   240.5
   460.7
   738.7
   671.4
   806.1
   202.3
   383.1
   460.7
   633.4
   580.2
   686.6
   220.3
   369.9
   406.8
   656.6
   599.1
   714.2
   300.1
   289.3
   537.9
   621.1
   650.8
   648.8
   583.8
   326.2
   173.9
   119.8
   541.0
   520.8
   561.2
   157.2
   350.1
    90.5
   494.2
   493.7
   494.7
   157.2
   101.8
   350.1
   538.4
   493.7
   583.8
   530.2
   751.9
   509.5
   383.1
   793.0
   864.5
   747.9
   803.5
   220.3
   128.9
   534.1
   512.3
   466.7
   557.8
   202.3
   101.8
   204.6
   500.3
   457.7
   543.0
   223.5
   532.9
   156.9
   578.2
   611.6
   544.9
   248.4
   156.9
   146.2
   567.2
   586.4
   548.0
   342.7
   532.9
   223.5
   677.5
   743.4
   611.6
   598.7
   349.0
   559.1
   786.1
   717.4
   854.8
   342.7
   349.0
   532.9
   709.8
   709.1
   743.4
   684.8
   248.4
   223.5
   156.9
   604.3
   586.4
   622.1
   324.3
   248.4
   146.2
   564.2
   564.2
   521.9
   311.4
   504.6
   800.2
   800.2
   324.3
   656.4
   467.7
   777.3
   842.3
   712.3
     0.0
   174.7
     0.0
   422.4
   422.4
   335.5
   355.4
   174.7
   623.7
   674.9
   628.1
   577.8
     0.0
   189.8
   174.7
   436.6
   436.6
   232.0
   189.8
     0.0
   488.7
   488.7
   325.0
   656.3
   543.7
   777.2
   886.3
   668.2
   404.6
   289.3
   300.1
   634.2
   684.5
   583.8
   475.0
   173.9
   448.6
   685.7
   583.8
   787.6
    86.6
     0.0
     0.0
   220.4
   220.4
    95.3
    86.6
   183.5
   412.3
   468.6
   356.0
   440.6
   321.5
   370.1
   718.2
   718.3
   667.9
   763.2
   326.2
   119.8
   109.7
   496.7
   472.6
   520.8
   217.3
   370.1
   157.3
   583.3
   586.1
   580.4
   475.0
   119.8
   173.9
   576.0
   568.2
   583.8
   506.3
   491.1
   311.2
   737.0
   827.1
   646.9
   303.1
   217.3
   319.6
   575.4
   550.8
   600.0
   303.1
   365.0
   217.3
   646.9
   646.9
   319.5
   578.2
   200.5
   629.0
   648.9
   609.1
   289.3
   475.2
   537.9
   653.7
   720.8
   606.6
   650.8
   227.1
   326.2
   552.7
   561.0
   551.5
   570.6
   146.7
   200.5
   578.2
   545.3
   609.1
   481.5
   448.6
   554.3
   319.6
   725.5
   681.6
   769.3
   656.3
   260.0
   537.0
   802.0
   802.0
   537.0
   260.0
   618.6
   891.8
   891.8
   586.3
   300.1
   459.3
   722.8
   745.4
   712.9
   716.6
   297.7
   537.0
   618.6
   789.5
   647.3
   891.8
   716.0
   437.2
   537.0
   285.0
   712.5
   788.0
   706.2
   661.0
   121.1
   459.3
    85.8
   540.3
   539.3
   541.3
   323.1
   215.1
   406.8
   655.5
   655.5
   354.1
   103.5
   509.5
   583.2
   496.8
   578.5
   724.6
   354.1
   751.9
   388.3
   711.3
   766.2
   656.4
   165.1
   586.3
   459.3
   665.0
   584.5
   745.4
   316.2
   581.4
   631.2
   769.2
   656.3
   906.3
   709.0
   153.5
   437.2
   285.0
   554.8
   448.7
   661.0
   303.9
   505.5
   771.5
   829.2
   829.2
   316.2
   337.3
   150.5
   605.8
   683.1
   475.0
   574.1
   448.4
   184.9
   512.4
   667.4
   772.8
   589.3
   623.0
   323.1
   369.9
   448.4
   706.6
   730.5
   682.8
   619.7
   448.4
   369.9
   786.9
   843.2
   730.5
   339.8
   184.9
   448.4
   669.5
   623.0
   716.0
   440.6
   550.3
   506.3
   828.0
   875.1
   770.4
   828.0
   505.5
   222.8
   174.1
   580.9
   599.4
   562.4
   303.1
   554.3
   410.2
   702.9
   659.6
   746.2
   202.3
   204.6
   383.1
   567.0
   591.1
   543.0
   122.6
   101.8
   157.2
   533.6
   530.2
   537.1
   354.1
   388.3
   128.9
   656.4
   656.4
   446.9
   335.5
   232.0
   610.7
   584.2
   637.2
   122.6
   204.6
   101.8
   455.6
   455.6
   505.8
   122.6
   209.4
   594.3
   537.0
   651.7
   372.8
   223.5
   248.4
   640.5
   658.8
   622.1
   209.4
   122.6
   157.2
   537.1
   537.1
   537.0
   195.8
   311.4
   165.4
   561.1
   543.5
   578.7
   598.7
   559.1
   257.4
   738.7
   688.6
   854.8
   662.3
   521.9
   679.0
   751.9
   942.7
  1019.9
   851.8
   899.6
   505.8
   165.4
   122.6
   557.4
   557.4
   780.2
   402.0
   543.7
   840.9
   800.5
   806.3
   905.9
   475.0
   448.6
   319.6
   723.4
   640.6
   681.6
   787.6
   342.7
   515.6
   760.8
   762.3
   674.3
   850.3
   372.8
   552.1
   515.6
   807.7
   851.5
   763.9
   656.4
   552.3
   433.9
   813.9
   837.1
   796.4
   821.3
   656.4
   433.9
   467.7
   802.9
   762.5
   842.3
   821.3
   446.9
   613.0
   335.5
   713.5
   789.9
   637.2
     0.0
   232.0
     0.0
   559.3
   559.3
   433.9
   741.0
   467.7
   799.2
   835.9
   762.5
   307.8
   446.9
   155.1
   586.0
   558.9
   613.1
   341.1
   236.2
   451.1
   675.4
   744.7
   662.3
   620.7
    95.3
     0.0
     0.0
   436.4
   436.4
   108.6
    95.3
   236.2
   424.6
   448.3
   400.8
   440.6
   506.3
   311.2
   770.4
   770.4
   505.5
   491.1
   506.3
   815.4
   803.1
   827.1
   812.8
   402.0
   578.2
   495.9
   748.2
   708.8
   783.3
   759.8
   132.7
   153.5
   285.0
   396.8
   344.8
   448.7
   543.7
   402.0
   495.9
   809.8
   861.3
   759.8
   806.3
   303.1
   550.3
   365.0
   662.3
   646.9
   677.7
   544.0
   506.3
   550.3
   872.9
   864.6
   875.1
   879.4
   191.4
   153.5
   476.2
   563.8
   563.8
   186.8
   402.0
   259.9
   576.2
   576.2
   303.9
   552.7
   616.7
   750.9
   661.3
   881.1
   716.7
   132.7
   278.9
   153.5
   386.5
   440.0
   332.9
   186.8
   311.4
   552.7
   626.4
   684.0
   568.8
   227.3
   404.6
   586.3
   718.0
   816.1
   611.0
   665.2
   437.2
   543.7
   537.0
   832.2
   788.0
   871.7
   835.5
   410.2
   544.0
   550.3
   832.7
   792.0
   879.4
   827.6
   316.2
   631.2
   227.3
   656.1
   603.2
   709.0
   653.5
   915.8
   927.2
  1102.7
  1005.5
  1199.9
   404.6
   300.1
   586.3
   766.3
   716.6
   816.1
   227.3
   586.3
   165.1
   611.0
   611.0
   191.4
   437.2
   153.5
   586.8
   586.8
   634.5
   868.1
   410.2
   971.5
   971.5
   603.9
   573.0
   289.3
   790.9
   733.3
   724.7
   900.1
   184.4
   128.9
   479.2
   551.3
   551.3
   233.5
   339.8
   297.7
   590.0
   556.3
   623.7
   316.2
   227.3
   165.1
   603.2
   603.2
   776.3
   780.2
   869.3
  1091.4
  1073.3
  1077.4
  1119.8
   541.3
   543.7
   437.2
   840.3
   895.1
   835.5
   751.4
   388.3
   479.2
   128.9
   626.6
   551.3
   701.9
   732.1
   448.4
   619.7
   886.1
   873.2
   843.2
   961.7
   732.1
   339.8
   448.4
   794.6
   873.2
   716.0
   184.4
   479.2
   280.1
   630.1
   630.1
   545.5
   573.0
   903.0
   897.4
   914.2
   880.6
   521.9
   383.1
   311.4
   719.3
   753.6
   685.0
   165.4
   204.6
   122.6
   473.3
   490.9
   455.6
   679.0
   961.6
   680.7
   950.1
  1021.7
   875.1
  1010.6
   534.0
   616.7
   865.3
   913.3
   866.2
   960.5
   573.0
   237.5
   191.4
   666.0
   666.0
   257.4
   559.1
   304.6
   704.9
   721.2
   688.6
   342.7
   763.6
   756.1
   999.4
   999.4
   195.8
   350.1
   504.6
   684.6
   740.3
   629.0
   432.2
   304.6
   655.4
   733.1
   647.1
   819.1
   977.7
   763.6
   760.8
  1060.2
  1103.9
  1015.4
  1084.7
   679.0
   680.7
   388.3
   811.9
   748.8
   875.1
   412.9
   763.6
   768.4
   930.5
   803.4
  1057.6
   342.7
   760.8
   763.6
  1015.4
  1015.4
   552.1
   760.8
   515.6
   876.6
   851.5
   850.3
   925.1
   653.5
   927.2
   760.8
  1051.8
  1103.4
  1000.2
   412.9
   756.1
   763.6
   877.7
   803.4
   999.4
   799.8
    85.3
   232.0
     0.0
   493.0
   426.6
   559.3
   231.8
   412.7
   433.9
   744.0
   744.0
   307.8
   433.9
   552.3
   747.6
   796.4
   698.8
   446.9
    85.3
   155.1
   541.4
   558.9
   523.9
     0.0
    85.3
     0.0
   390.4
   390.4
   273.9
    85.3
     0.0
   414.9
   439.4
   390.4
   752.7
   631.2
   581.4
   922.1
   908.6
   906.3
   951.2
   771.5
   554.3
   448.6
   822.1
   899.9
   769.3
   812.0
   138.1
   223.0
   341.1
   508.0
   476.1
   540.0
    49.7
   108.6
   100.4
   432.0
   430.3
   433.6
   108.6
     0.0
     0.0
   492.5
   492.5
   174.1
   138.1
   341.1
   551.7
   563.5
   540.0
   138.1
   402.9
   100.4
   506.0
   489.6
   522.3
   473.7
   506.3
   544.0
   829.8
   808.5
   864.6
   789.6
   311.4
   616.7
   552.7
   782.6
   684.0
   881.1
   634.5
   554.3
   771.5
   935.6
   911.1
   899.9
   985.1
   780.2
   389.7
   402.0
   761.4
   722.4
   800.5
   516.3
   865.3
   616.7
   890.8
   845.6
   960.5
   891.8
   505.5
   837.6
   771.5
   949.6
  1070.1
   829.2
   311.4
   516.3
   616.7
   845.6
   845.6
   868.1
   544.0
   410.2
   892.3
   957.1
   827.6
   311.4
   389.7
   516.3
   701.6
   660.0
   743.1
   603.9
   289.3
   404.6
   704.6
   684.5
   724.7
   869.3
   780.2
   543.7
   991.7
   905.9
  1077.4
   191.4
   541.3
   437.2
   669.1
   586.8
   751.4
   541.3
   869.3
   543.7
   919.4
   895.1
   943.7
   732.1
   619.7
   928.6
   995.2
   963.1
   961.7
  1054.3
   305.7
   638.1
   227.3
   652.9
   652.9
   638.1
   404.6
   227.3
   704.3
   778.6
   665.2
   652.9
   603.9
   730.0
   903.0
   995.4
  1072.2
   931.1
   947.0
   651.6
   776.3
   955.4
  1069.5
  1008.3
  1130.7
   634.5
   837.6
  1031.4
  1092.0
   996.7
  1187.2
   550.6
   433.9
   412.7
   785.5
   838.7
   744.0
   776.3
   297.7
   752.7
   581.4
   778.6
   648.6
   908.6
   407.8
   465.2
   607.3
   746.0
   731.1
   761.0
   631.2
   305.7
   227.3
   701.0
   701.0
   730.0
   908.1
   903.0
  1109.2
  1190.6
  1072.2
  1054.3
   680.7
   280.1
   479.2
   734.0
   837.8
   630.1
   744.8
   631.2
   752.7
  1012.3
   967.2
   951.2
  1070.1
   524.1
   638.1
   305.7
   836.8
   836.8
   486.3
   184.4
   280.1
   625.2
   625.2
   680.7
   479.2
   388.3
   759.3
   701.9
   837.8
   748.8
   732.1
   804.2
   607.3
   969.6
  1052.5
   886.6
   545.5
   903.0
   908.1
  1052.4
  1190.6
   914.2
   583.1
   544.0
   868.1
   924.9
   901.5
   957.1
   941.6