# vtk DataFile Version 3.0
Landscape
ASCII
DATASET UNSTRUCTURED_GRID
POINTS      27940 float
           0.000           0.000           0.000
        1600.000           0.000           0.000
           0.000        1600.000           0.000
         533.333         533.333           0.000
        1820.535        1836.129         191.867
        1600.000           0.000           0.000
        3200.000           0.000           0.000
        2206.845         612.043         370.667
        1767.992        1398.668         370.667
        4436.497        1560.645         234.918
        3200.000           0.000           0.000
        4800.000           0.000           0.000
        4145.499         520.215         358.820
        4503.737        1271.962         358.820
        6234.052        1737.813          59.184
        4800.000           0.000           0.000
        6400.000           0.000           0.000
        5811.350         579.271         367.647
        5683.240        1070.328         367.647
        8231.839        1585.959         209.335
        6400.000           0.000           0.000
        8000.000           0.000           0.000
        8014.774        1247.646         383.507
        7848.047        1253.682         414.153
        8181.501        1241.611         352.861
        8231.839        1585.959         209.335
        8000.000           0.000           0.000
        9600.000           0.000           0.000
        8610.613         528.653         352.861
        8181.501        1241.611         352.861
       10114.256        2299.635         183.945
       10506.534         877.165          60.817
       11192.297        1979.624         146.152
       10604.362        1718.808         390.829
       10606.067        2153.643         390.829
       11192.297        1979.624         146.152
       11200.000           0.000           0.000
       12800.000           0.000           0.000
       11402.925        1441.984         391.063
       11194.473        1420.374         370.773
       11611.377        1463.594         411.353
       14535.388        1860.001          62.710
       12800.000           0.000           0.000
       14400.001           0.000           0.000
       14181.208        1157.333         363.965
       13878.037        1155.447         385.980
       14484.379        1159.218         341.949
       14535.388        1860.001          62.710
       14400.001           0.000           0.000
       16000.000           0.000           0.000
       14978.463         620.000         341.949
       14484.379        1159.218         341.949
       17224.315        1919.917         409.612
       16000.000           0.000           0.000
       17600.000           0.000           0.000
       16941.438         639.972         435.723
       17199.758        1881.408         435.723
       18961.790        1751.968          28.574
       17600.000           0.000           0.000
       19200.000           0.000           0.000
       18587.263         583.989         352.848
       18369.778         990.333         352.848
        4436.497        1560.645         234.918
        1820.535        1836.129         191.867
        3200.000           0.000           0.000
        3152.344        1132.258         571.445
        3333.176        1676.834         571.445
       23731.335        1792.943         260.980
       22400.000           0.000           0.000
       24000.001           0.000           0.000
       23377.112         597.648         381.164
       23774.226        1506.714         381.164
       25712.931        1511.197          50.279
       24000.001           0.000           0.000
       25599.999           0.000           0.000
       25104.310         503.732         366.132
       25029.250         908.034         366.132
       25712.931        1511.197          50.279
       27200.000           0.000           0.000
       27507.238        1603.221         230.673
       26806.723        1038.139         378.551
       26307.797         906.679         355.974
       27448.072        1294.480         361.120
       27042.029        1579.362         419.268
       27507.238        1603.221         230.673
       27200.000           0.000           0.000
       28800.001           0.000           0.000
       27835.746         534.407         361.120
       27448.072        1294.480         361.120
       30065.602        1613.570         299.700
       28800.001           0.000           0.000
       30400.000           0.000           0.000
       29755.201         537.857         406.403
       29911.981        1417.711         406.403
       31040.554         771.051         286.722
       30065.602        1613.570         299.700
       30400.000           0.000           0.000
       30774.206         969.964         432.232
       31010.325         734.663         313.890
       30538.087        1205.265         550.574
       31415.600        1997.898         135.929
       33371.579        1994.991          28.524
       33224.678        2857.386          39.153
       32051.837        2144.291         402.919
       32069.760        1996.926         397.049
       32033.913        2291.657         408.788
       34548.701        1811.800         204.553
       34459.486        2336.808         159.191
       33371.579        1994.991          28.524
       34126.589        2047.867         294.488
       34514.013        2015.932         294.488
        6234.052        1737.813          59.184
        6043.012        3262.445         121.857
        5160.666        3300.186         210.396
        5812.577        2766.815         345.990
        5485.844        3286.277         345.990
       37099.539        1414.823         262.480
       35200.000           0.000           0.000
       36800.001           0.000           0.000
       36366.513         471.608         421.818
       36790.139        1184.374         421.818
       37099.539        1414.823         262.480
       36800.001           0.000           0.000
       38399.999           0.000           0.000
       37433.180         471.608         392.054
       37308.150        1187.867         392.054
       39191.316         917.871          42.268
       38399.999           0.000           0.000
       40000.000           0.000           0.000
       39197.105         305.957         258.703
       38840.019         510.391         258.703
       40125.312        1643.514          33.015
       39191.316         917.871          42.268
       40000.000           0.000           0.000
       39772.209         853.795         274.637
       39648.944        1273.413         274.637
       43418.644        1867.336          45.657
       41599.998           0.000           0.000
       43200.002           0.000           0.000
       43001.780        1104.208         361.667
       42674.112        1102.871         385.596
       43329.448        1105.545         337.739
       43418.644        1867.336          45.657
       43200.002           0.000           0.000
       44800.000           0.000           0.000
       43806.215         622.445         337.739
       43329.448        1105.545         337.739
       34548.701        1811.800         204.553
       37099.539        1414.823         262.480
       36841.038        3085.085         158.000
       36163.093        2103.903         549.950
       36087.075        1572.389         589.680
       37010.480        1990.265         497.256
       35492.973        2336.298         541.182
       48116.282        1628.322         156.289
       49600.000           0.000           0.000
       49975.028        1831.460         216.286
       49230.437        1153.260         429.804
       48515.785        1189.883         393.838
       49894.950        1440.398         380.222
       49250.525        1752.281         500.980
       10114.256        2299.635         183.945
        8231.839        1585.959         209.335
       10506.534         877.165          60.817
        8963.638        1651.631         493.524
        9082.246        1908.372         521.218
        8845.029        1394.889         465.829
       52954.322        1538.422         135.815
       52800.002           0.000           0.000
       54400.001           0.000           0.000
       53384.775         512.807         331.756
       52905.953        1056.232         331.756
       55816.240        1531.934         179.076
       54400.001           0.000           0.000
       55999.999           0.000           0.000
       55662.385        1140.582         366.491
       55460.765        1147.419         390.009
       55864.004        1133.745         342.974
       55816.240        1531.934         179.076
       55999.999           0.000           0.000
       57600.002           0.000           0.000
       56472.081         510.645         342.974
       55864.004        1133.745         342.974
       38196.713        1837.356          89.334
       37099.539        1414.823         262.480
       38399.999           0.000           0.000
       37898.751        1084.060         373.335
       38268.087        1192.264         348.279
       37308.150        1187.867         392.054
       37396.749        1529.282         396.073
       59004.449        1641.677          30.936
       57600.002           0.000           0.000
       59200.001           0.000           0.000
       58601.484         547.226         313.408
       59089.275         929.552         313.408
       25712.931        1511.197          50.279
       25600.029        2863.835         100.507
       23731.335        1792.943         260.980
       24200.544        1903.989         465.597
       24228.387        2077.789         489.994
       24172.702        1730.189         441.201
       63784.513        1656.536         232.198
[...]
POINT_DATA      27940
SCALARS height float 1
LOOKUP_TABLE default
     0.0
     0.0
     0.0
     0.0
   191.9
     0.0
     0.0
   370.7
   370.7
   234.9
     0.0
     0.0
   358.8
   358.8
    59.2
     0.0
     0.0
   367.6
   367.6
   209.3
     0.0
     0.0
   383.5
   414.2
   352.9
   209.3
     0.0
     0.0
   352.9
   352.9
   183.9
    60.8
   146.2
   390.8
   390.8
   146.2
     0.0
     0.0
   391.1
   370.8
   411.4
    62.7
     0.0
     0.0
   364.0
   386.0
   341.9
    62.7
     0.0
     0.0
   341.9
   341.9
   409.6
     0.0
     0.0
   435.7
   435.7
    28.6
     0.0
     0.0
   352.8
   352.8
   234.9
   191.9
     0.0
   571.4
   571.4
   261.0
     0.0
     0.0
   381.2
   381.2
    50.3
     0.0
     0.0
   366.1
   366.1
    50.3
     0.0
   230.7
   378.6
   356.0
   361.1
   419.3
   230.7
     0.0
     0.0
   361.1
   361.1
   299.7
     0.0
     0.0
   406.4
   406.4
   286.7
   299.7
     0.0
   432.2
   313.9
   550.6
   135.9
    28.5
    39.2
   402.9
   397.0
   408.8
   204.6
   159.2
    28.5
   294.5
   294.5
    59.2
   121.9
   210.4
   346.0
   346.0
   262.5
     0.0
     0.0
   421.8
   421.8
   262.5
     0.0
     0.0
   392.1
   392.1
    42.3
     0.0
     0.0
   258.7
   258.7
    33.0
    42.3
     0.0
   274.6
   274.6
    45.7
     0.0
     0.0
   361.7
   385.6
   337.7
    45.7
     0.0
     0.0
   337.7
   337.7
   204.6
   262.5
   158.0
   550.0
   589.7
   497.3
   541.2
   156.3
     0.0
   216.3
   429.8
   393.8
   380.2
   501.0
   183.9
   209.3
    60.8
   493.5
   521.2
   465.8
   135.8
     0.0
     0.0
   331.8
   331.8
   179.1
     0.0
     0.0
   366.5
   390.0
   343.0
   179.1
     0.0
     0.0
   343.0
   343.0
    89.3
   262.5
     0.0
   373.3
   348.3
   392.1
   396.1
    30.9
     0.0
     0.0
   313.4
   313.4
    50.3
   100.5
   261.0
   465.6
   490.0
   441.2
   232.2
     0.0
     0.0
   389.4
   408.8
   370.0
    35.6
     0.0
     0.0
   238.9
   238.9
   271.2
    76.7
   152.6
   493.2
   493.2
    62.7
   146.2
     0.0
   439.1
   386.0
   411.4
   497.0
    87.3
     0.0
     0.0
   338.3
   310.1
   366.4
   159.2
     0.0
     0.0
   373.3
   398.1
   348.4
    77.7
   359.4
   159.2
   385.1
   385.1
   329.9
    30.9
     0.0
   358.5
   313.4
   403.5
   167.2
   386.0
   329.9
   616.0
   695.5
   536.4
    28.6
   332.1
    57.9
   467.4
   433.2
   501.5
   123.7
   280.0
   332.1
   525.1
   589.6
   460.7
   409.6
    62.7
     0.0
   475.5
   435.7
   515.3
    60.8
   209.3
     0.0
   465.8
   465.8
   191.9
     0.0
     0.0
   440.2
   370.7
   509.7
   332.1
     0.0
     0.0
   415.4
   436.5
   394.3
   152.7
     0.0
   123.7
   299.2
   299.2
    24.2
     0.0
     0.0
   345.3
   345.3
    24.2
     0.0
   135.8
   358.0
   353.8
   331.8
   384.6
    59.2
   234.9
     0.0
   385.8
   367.6
   358.8
   427.8
    24.2
   135.8
    50.2
   410.9
   437.1
   384.6
    87.3
     0.0
     0.0
   310.1
   310.1
    89.9
   214.7
   146.2
   531.2
   518.8
   543.6
   179.1
   135.8
     0.0
   461.4
   390.0
   532.9
   299.7
   230.7
     0.0
   510.5
   406.4
   614.6
   381.4
   214.7
    89.9
   557.0
   543.6
   570.4
   329.9
     0.0
     0.0
   380.2
   380.2
   167.2
     0.0
     0.0
   402.5
   402.5
   163.6
   464.6
   100.5
   497.4
   497.4
    99.3
   332.1
   280.0
   546.2
   552.8
   589.6
   517.0
   206.8
    89.9
   409.6
   536.8
   540.6
   559.9
   520.1
    28.6
    57.9
   206.8
   432.3
   432.3
   135.9
    13.0
    28.5
   397.0
   397.0
    73.6
   149.1
    71.4
   458.4
   475.9
   440.8
   156.3
   436.8
   149.1
   520.7
   546.6
   494.8
   158.0
   262.5
    89.3
   446.7
   396.1
   497.3
    33.0
    45.7
    99.8
   445.0
   442.4
   419.0
   465.0
    33.0
    89.3
    42.3
   329.4
   384.1
   274.6
   264.2
   100.5
   318.2
   505.2
   460.0
   550.5
   156.3
    73.6
     0.0
   403.7
   326.7
   404.9
   471.9
   152.6
     0.0
     0.0
   383.7
   360.9
   406.5
    97.7
    42.9
   334.3
   419.1
   419.1
   247.7
   135.8
   179.1
   562.4
   532.9
   591.8
    73.6
    71.4
    45.7
   421.7
   402.6
   440.8
    30.9
   179.1
     0.0
   489.0
   489.0
    87.3
   334.3
     0.0
   447.3
   412.0
   482.7
   159.2
    87.3
     0.0
   434.6
   398.1
   366.4
   502.7
   167.2
   329.9
     0.0
   451.8
   402.5
   380.2
   536.4
   156.3
   149.1
    73.6
   483.3
   494.8
   471.9
   218.4
   436.8
   407.4
   598.4
   525.4
   671.4
    50.2
   436.8
   216.3
   495.0
   619.9
   403.7
   531.1
   271.2
    35.6
    76.7
   447.5
   502.8
   377.5
   493.2
    42.9
   152.6
     0.0
   427.5
   406.5
   448.5
   191.8
   209.3
   325.0
   584.4
   569.1
   597.4
   591.4
   252.9
     0.0
     0.0
   412.4
   442.0
   382.8
   252.9
     0.0
     0.0
   498.2
   382.8
   613.6
   144.7
    87.3
   159.2
   523.6
   502.7
   544.5
   359.4
   252.9
   175.4
   594.8
   651.8
   524.5
   630.0
   144.7
   155.5
   334.3
   545.4
   546.3
   538.4
   549.3
     0.0
   252.9
     0.0
   537.4
   613.6
   461.1
    59.2
   210.4
   234.9
   483.4
   538.9
   427.8
   183.9
   214.7
   325.0
   486.0
   554.4
   417.7
   565.8
   191.9
   234.9
   603.8
   571.4
   636.1
     0.0
     0.0
   191.9
   532.5
   509.7
   555.4
   183.8
   191.9
   565.8
   579.4
   549.3
   609.4
   210.4
   565.8
   234.9
   583.8
   538.9
   636.1
   609.7
   375.9
   565.8
   210.4
   680.6
   751.6
   609.7
   297.7
   464.6
   394.5
   659.0
   699.4
   611.1
   683.5
    50.3
   318.2
   100.5
   460.0
   460.0
   375.9
   183.8
   565.8
   673.9
   751.6
   609.4
   641.5
   183.8
     0.0
     0.0
   470.0
   507.2
   432.7
   247.7
    50.2
   135.8
   438.6
   437.1
   440.0
    89.9
   146.2
    62.7
   507.9
   497.0
   518.8
    89.9
    62.7
   409.6
   528.0
   515.3
   540.6
   152.7
   123.7
   332.1
   380.0
   460.7
   299.2
    50.3
   261.0
     0.0
   394.8
   366.1
   381.2
   441.2
   245.9
   478.5
   156.2
   510.4
   426.1
   594.7
    28.6
   206.8
   409.6
   480.0
   433.7
   559.9
   432.3
   112.8
   206.8
    57.9
   438.6
   438.6
   262.0
   230.7
   299.7
   606.1
   624.6
   614.6
   542.2
   135.9
   299.7
   286.7
   489.9
   463.3
   550.6
   446.7
   209.1
   159.2
   158.0
   520.3
   515.1
   525.6
   262.0
   318.2
   230.7
   627.1
   549.1
   624.6
   665.5
   135.9
   286.7
    13.0
   419.1
   391.4
   446.7
   135.9
    64.4
   262.0
   476.2
   486.1
   466.3
    73.6
    45.7
     0.0
   402.6
   402.6
    99.8
    45.7
    71.4
   419.0
   419.0
   159.2
    39.2
    28.5
   349.5
   349.5
   163.6
   264.2
   298.8
   594.5
   551.4
   637.7
    99.3
   112.8
    57.9
   465.1
   465.1
   498.9
    89.3
    71.9
   504.0
   572.8
   448.7
   535.6
   614.3
   318.2
   262.0
   681.1
   708.0
   665.5
   678.2
   417.7
   381.4
   342.8
   730.8
   766.4
   690.0
   720.4
    24.2
    50.2
   216.3
   403.7
   403.7
    35.6
    91.5
   232.2
   403.2
   403.2
   186.3
   179.1
    30.9
   514.8
   568.8
   489.0
   466.9
    54.6
    30.9
   329.9
   435.9
   403.5
   468.2
   514.7
    71.4
   149.1
   535.3
   475.9
   594.7
    97.7
   152.6
    42.9
   451.3
   454.1
   448.5
    91.5
   386.0
   232.2
   508.7
   624.9
   403.2
   503.3
   325.3
   407.4
   326.2
   673.5
   659.4
   691.6
   667.5
    89.3
    50.2
   247.7
   484.9
   440.0
   529.8
   100.1
   134.0
   498.9
   550.9
   568.8
   533.0
   474.4
   247.7
   179.1
   638.0
   591.8
   684.2
   186.3
    30.9
    54.6
   466.9
   466.9
   386.0
    54.6
   329.9
   569.4
   695.5
   468.2
   521.4
   521.4
    89.3
   247.7
   550.9
   529.8
   572.0
   144.7
   334.3
    87.3
   510.6
   482.7
   538.4
   271.2
   387.4
    91.5
   516.5
   522.0
   510.9
   271.2
    91.5
    35.6
   506.9
   510.9
   502.8
    83.9
    54.6
   386.0
   549.2
   521.4
   576.9
   297.7
   280.0
   464.6
   657.3
   641.1
   651.2
   683.5
   323.0
   159.2
   346.0
   648.6
   614.9
   682.3
    97.7
   537.5
   152.6
   501.4
   554.2
   454.1
   547.4
   156.2
   381.4
    89.9
   577.2
   570.4
   584.0
   359.4
   346.0
   159.2
   650.3
   650.3
     0.0
   252.9
     0.0
   461.1
   461.1
   323.0
   613.2
   667.0
   796.1
   724.0
   868.1
   335.1
   175.4
   189.4
   508.8
   580.9
   436.8
   275.8
   191.8
   305.3
   549.4
   614.3
   484.5
   237.4
   183.8
   375.9
   618.5
   574.0
   641.5
   658.2
   359.4
   175.4
   346.0
   635.4
   630.4
   650.3
   630.0
     0.0
   175.4
   252.9
   473.8
   524.5
   423.1
   381.4
   325.0
   214.7
   615.7
   676.9
   554.4
   183.8
     0.0
   191.9
   539.7
   549.3
   555.4
   507.2
   275.8
   210.4
   121.9
   448.5
   551.0
   346.0
   275.8
   305.3
   477.9
   628.0
   641.7
   614.3
   159.2
   459.9
    39.2
   456.8
   471.3
   349.5
   594.6
   459.9
    64.4
    39.2
   471.3
   471.3
    99.3
    57.9
   332.1
   527.2
   552.8
   501.5
   644.3
   508.1
   461.7
   814.2
   781.6
   820.5
   823.0
   275.8
   121.9
   191.8
   484.5
   484.5
   387.1
   375.9
   477.9
   740.0
   746.1
   748.6
   718.2
   245.9
   112.8
   478.5
   567.1
   549.9
   566.2
   594.7
   614.3
   264.2
   318.2
   617.6
   708.0
   550.5
   630.7
   237.9
    64.4
    84.0
   472.9
   472.9
   128.5
   568.3
   157.9
   584.2
   584.2
   159.2
   542.5
   459.9
   635.5
   715.6
   594.6
   602.5
   498.9
   158.0
    89.3
   572.8
   572.8
    33.0
    99.8
    71.9
   449.5
   434.1
   465.0
   237.9
    84.0
   239.6
   528.8
   528.8
   127.6
   514.7
   155.4
   560.7
   550.9
   570.4
   347.5
   387.4
   586.5
   696.1
   660.1
   749.9
   677.4
   243.2
    64.4
   459.9
   569.7
   569.7
   315.2
    84.0
   243.2
   569.9
   513.8
   626.0
   357.1
   521.4
   474.4
   748.8
   822.8
   671.8
   734.2
   209.1
   498.9
   314.5
   678.7
   622.6
   734.8
   209.1
   314.5
   542.5
   663.1
   663.1
   387.1
   248.9
   237.4
   586.1
   539.5
   632.7
   407.4
   436.8
    50.2
   578.4
   531.1
   671.4
   541.3
    89.3
   407.4
    50.2
   550.5
   541.3
   559.7
   127.6
    99.8
    71.4
   439.8
   439.8
   521.4
   247.7
   474.4
   753.5
   684.2
   822.8
   186.3
   357.1
   474.4
   622.4
   573.0
   671.8
   196.5
   326.2
   407.4
   637.5
   583.4
   691.6
   314.5
   243.2
   542.5
   604.4
   618.5
   663.1
   555.9
   382.6
   162.1
   112.8
   544.3
   525.8
   562.9
   157.3
   386.0
    91.5
   503.5
   503.6
   503.3
   157.3
    83.9
   386.0
   533.3
   503.6
   576.9
   522.8
   642.0
   521.4
   357.1
   785.2
   863.2
   734.2
   779.7
   196.5
   109.8
   487.5
   493.1
   447.4
   538.8
   186.3
    83.9
   181.4
   483.6
   441.4
   525.7
   220.8
   537.5
   155.5
   613.7
   613.7
   243.2
   155.5
   144.7
   568.1
   586.9
   549.3
   322.2
   537.5
   220.8
   673.5
   733.3
   613.7
   586.5
   387.4
   632.3
   818.1
   749.9
   886.4
   322.2
   387.4
   537.5
   719.4
   743.8
   733.3
   693.2
   243.2
   220.8
   155.5
   604.8
   586.9
   622.6
   323.0
   243.2
   144.7
   561.1
   561.1
   463.2
   277.8
   438.1
   735.2
   735.2
   323.0
   667.0
   449.1
   774.8
   836.4
   713.3
     0.0
   175.4
     0.0
   423.1
   423.1
   335.1
   346.0
   175.4
   625.4
   673.2
   630.4
   580.9
     0.0
   189.4
   175.4
   436.8
   436.8
   243.9
   189.4
     0.0
   492.5
   492.5
   298.8
   644.3
   461.7
   823.0
   823.0
   411.4
   243.2
   314.5
   604.6
   653.2
   555.9
   478.5
   162.1
   390.5
   669.2
   578.2
   760.1
    86.7
     0.0
     0.0
   220.4
   220.4
    95.6
    86.7
   183.8
   413.0
   469.8
   356.2
   417.7
   325.0
   381.4
   725.9
   718.4
   676.9
   766.4
   382.6
   112.8
    99.3
   495.4
   465.1
   525.8
   213.2
   381.4
   156.2
   585.6
   587.2
   584.0
   478.5
   112.8
   162.1
   572.2
   566.2
   578.2
   482.2
   477.9
   305.3
   727.7
   813.7
   641.7
   288.4
   213.2
   314.0
   567.4
   547.3
   587.5
   288.4
   342.8
   213.2
   630.4
   630.4
   297.7
   568.3
   182.8
   614.4
   632.1
   596.8
   243.2
   459.9
   542.5
   628.9
   715.6
   569.7
   618.5
   208.3
   382.6
   536.5
   619.1
   550.1
   709.7
   554.1
   128.5
   182.8
   568.3
   530.1
   596.8
   463.5
   390.5
   531.7
   314.0
   695.5
   669.9
   721.2
   644.3
   264.2
   508.1
   725.7
   669.8
   781.6
   508.1
   264.2
   614.3
   752.5
   630.7
   874.3
   537.9
   314.5
   498.9
   735.9
   749.4
   734.8
   728.4
   237.9
   508.1
   614.3
   772.7
   874.3
   671.2
   344.9
   508.1
   239.6
   658.1
   713.8
   672.4
   612.9
   100.1
   498.9
    71.9
   534.3
   535.6
   533.0
   325.3
   218.4
   407.4
   659.4
   659.4
   283.9
    89.3
   521.4
   551.0
   473.9
   572.0
   675.4
   283.9
   642.0
   342.4
   655.8
   718.9
   592.7
   134.0
   537.9
   498.9
   659.1
   568.8
   749.4
   284.5
   484.3
   583.8
   706.8
   613.6
   824.4
   682.7
   111.9
   344.9
   239.6
   509.2
   405.6
   612.9
   265.6
   387.7
   643.3
   709.6
   709.6
   284.5
   305.5
   127.6
   581.2
   657.7
   450.9
   555.1
   441.1
   155.4
   514.7
   656.4
   770.0
   570.4
   603.6
   325.3
   326.2
   441.1
   683.3
   699.2
   667.5
   558.4
   441.1
   326.2
   768.9
   838.6
   699.2
   324.8
   155.4
   441.1
   655.2
   603.6
   706.9
   417.7
   500.8
   482.2
   807.5
   848.4
   750.2
   804.4
   558.8
   227.4
   177.0
   615.4
   615.4
   288.4
   531.7
   369.5
   678.3
   645.9
   710.8
   186.3
   181.4
   357.1
   548.6
   571.4
   525.7
   100.0
    83.9
   157.3
   525.3
   522.8
   527.8
   283.9
   342.4
   109.8
   592.7
   592.7
   484.2
   335.1
   243.9
   621.4
   594.9
   647.9
   100.0
   181.4
    83.9
   433.5
   433.5
   459.5
   100.0
   207.5
   587.0
   525.0
   649.0
   355.1
   220.8
   243.2
   639.4
   656.3
   622.6
   207.5
   100.0
   157.3
   526.4
   527.8
   525.0
   153.0
   277.8
   131.4
   527.2
   512.7
   541.8
   586.5
   632.3
   251.6
   746.9
   698.2
   886.4
   660.4
   463.2
   558.3
   642.0
   859.0
   913.4
   788.4
   844.3
   459.5
   131.4
   100.0
   525.0
   525.0
   744.4
   346.9
   461.7
   786.5
   759.7
   757.5
   841.2
   478.5
   390.5
   314.0
   700.7
   639.2
   669.9
   760.1
   322.2
   513.6
   684.6
   748.9
   659.7
   838.1
   355.1
   497.9
   513.6
   792.3
   828.8
   755.8
   667.0
   521.7
   431.4
   809.4
   817.5
   794.2
   827.8
   667.0
   431.4
   449.1
   799.2
   755.1
   836.4
   827.8
   484.2
   613.2
   335.1
   735.5
   823.1
   647.9
     0.0
   243.9
     0.0
   571.7
   571.7
   431.4
   738.5
   449.1
   791.2
   827.4
   755.1
   301.6
   484.2
   157.9
   594.6
   569.8
   619.5
   387.1
   237.4
   375.9
   689.7
   746.1
   658.2
   632.7
    95.6
     0.0
     0.0
   437.6
   437.6
   119.2
    95.6
   237.4
   431.5
   456.9
   406.2
   417.7
   482.2
   305.3
   750.2
   750.2
   558.8
   477.9
   482.2
   816.8
   815.9
   813.7
   821.7
   346.9
   568.3
   480.9
   714.2
   665.6
   769.9
   718.1
    97.8
   111.9
   239.6
   354.6
   303.7
   405.6
   461.7
   346.9
   480.9
   773.4
   823.0
   718.1
   757.5
   288.4
   500.8
   342.8
   645.7
   630.4
   660.9
   438.3
   482.2
   500.8
   822.4
   806.1
   848.4
   803.9
   136.0
   111.9
   348.5
   498.4
   498.4
   157.9
   346.9
   212.6
   524.9
   524.9
   265.6
   536.5
   382.9
   682.9
   629.6
   742.2
   658.6
    97.8
   315.2
   111.9
   378.0
   422.2
   333.9
   157.9
   211.4
   536.5
   602.1
   602.1
   178.1
   411.4
   537.9
   709.9
   823.8
   567.6
   631.9
   344.9
   461.7
   508.1
   769.2
   713.8
   820.5
   758.5
   369.5
   438.3
   500.8
   779.1
   757.1
   803.9
   776.1
   284.5
   583.8
   178.1
   623.3
   563.9
   682.7
   573.2
   830.7
   770.6
  1004.3
   937.7
  1070.8
   411.4
   314.5
   537.9
   776.1
   728.4
   823.8
   178.1
   537.9
   134.0
   567.6
   567.6
   136.0
   344.9
   111.9
   531.4
   531.4
   493.3
   762.8
   369.5
   840.9
   840.9
   600.6
   439.4
   243.2
   728.5
   689.6
   694.1
   802.1
   147.8
   109.8
   355.4
   518.7
   518.7
   188.4
   324.8
   224.6
   542.9
   519.8
   566.0
   284.5
   178.1
   134.0
   563.9
   563.9
   518.0
   744.4
   748.9
   926.9
   861.8
  1027.6
   896.3
   376.2
   461.7
   344.9
   723.4
   778.8
   758.5
   641.5
   342.4
   355.4
   109.8
   577.3
   518.7
   635.8
   678.3
   441.1
   558.4
   868.5
   873.6
   838.6
   911.5
   678.3
   324.8
   441.1
   790.3
   873.6
   706.9
   147.8
   355.4
   193.6
   534.7
   534.7
   363.2
   439.4
   754.4
   755.3
   786.5
   724.1
   463.2
   357.1
   277.8
   693.8
   728.6
   659.1
   131.4
   181.4
   100.0
   447.8
   462.0
   433.5
   558.3
   814.6
   464.7
   788.0
   830.9
   701.5
   894.7
   392.0
   382.9
   629.4
   716.1
   692.3
   739.1
   730.7
   439.4
   161.1
   136.0
   593.7
   593.7
   251.6
   632.3
   292.2
   712.1
   726.0
   698.2
   322.2
   699.2
   713.5
   945.1
   945.1
   153.0
   290.4
   438.1
   639.4
   688.4
   590.4
   406.2
   292.2
   585.9
   714.2
   633.2
   795.2
   879.4
   699.2
   684.6
   996.9
  1049.7
   943.2
  1015.0
   558.3
   464.7
   342.4
   688.1
   674.8
   701.5
   371.3
   699.2
   612.2
   846.9
   766.6
   927.3
   322.2
   684.6
   699.2
   943.2
   943.2
   497.9
   684.6
   513.6
   847.8
   828.8
   838.1
   880.2
   573.2
   770.6
   684.6
   982.1
  1032.3
   931.8
   371.3
   713.5
   699.2
   832.9
   766.6
   945.1
   765.9
    86.8
   243.9
     0.0
   501.5
   431.4
   571.7
   237.2
   413.9
   431.4
   745.9
   745.9
   301.6
   431.4
   521.7
   746.1
   794.2
   698.0
   484.2
    86.8
   157.9
   551.1
   569.8
   532.4
     0.0
    86.8
     0.0
   392.0
   392.0
   266.0
    86.8
     0.0
   415.6
   439.1
   392.0
   572.8
   583.8
   484.3
   833.5
   801.3
   824.4
   872.8
   643.3
   531.7
   390.5
   783.6
   866.8
   721.2
   751.5
   139.8
   248.9
   387.1
   517.5
   484.4
   550.6
    49.6
   119.2
   101.1
   437.4
   436.4
   438.5
   119.2
     0.0
     0.0
   503.2
   503.2
   177.0
   139.8
   387.1
   563.1
   575.6
   550.6
   139.8
   420.0
   101.1
   511.6
   494.8
   528.5
   487.1
   482.2
   438.3
   790.5
   807.4
   806.1
   752.0
   211.4
   382.9
   536.5
   672.1
   602.1
   742.2
   493.3
   531.7
   643.3
   853.5
   842.8
   866.8
   854.5
   744.4
   282.5
   346.9
   698.6
   637.5
   759.7
   267.5
   629.4
   382.9
   665.8
   592.5
   739.1
   387.7
   613.8
   643.3
   809.3
   908.9
   709.6
   211.4
   267.5
   382.9
   592.5
   592.5
   762.8
   438.3
   369.5
   824.3
   872.5
   776.1
   211.4
   282.5
   267.5
   571.4
   556.8
   586.0
   600.6
   243.2
   411.4
   673.7
   653.2
   694.1
   748.9
   744.4
   461.7
   934.4
   841.2
  1027.6
   136.0
   376.2
   344.9
   586.5
   531.4
   641.5
   376.2
   748.9
   461.7
   794.1
   778.8
   809.5
   678.3
   558.4
   749.3
   933.4
   894.1
   911.5
   987.8
   223.9
   548.3
   178.1
   607.4
   607.4
   548.3
   411.4
   178.1
   680.7
   776.0
   631.9
   607.4
   600.6
   667.3
   754.4
   961.1
  1009.1
   906.1
   941.2
   383.2
   518.0
   523.7
   797.7
   743.1
   852.3
   493.3
   613.8
   838.7
   925.7
   856.3
   995.2
   401.6
   431.4
   413.9
   759.2
   784.2
   745.9
   733.0
   224.6
   572.8
   484.3
   687.6
   573.8
   801.3
   268.5
   496.7
   658.4
   709.4
   627.1
   791.7
   583.8
   223.9
   178.1
   632.8
   632.8
   667.3
   738.9
   754.4
  1006.4
  1034.7
  1009.1
   979.7
   464.7
   193.6
   355.4
   620.4
   706.1
   534.7
   454.0
   583.8
   572.8
   834.8
   807.9
   872.8
   828.2
   361.4
   548.3
   223.9
   688.0
   688.0
   329.9
   147.8
   193.6
   520.3
   520.3
   464.7
   355.4
   342.4
   671.7
   635.8
   706.1
   674.8
   678.3
   624.4
   658.4
   920.9
   955.2
   903.9
   882.9
   363.2
   754.4
   738.9
  1034.7
  1034.7
   537.3
   438.3
   762.8
   854.6
   824.7
   872.5
   896.4
   329.9
   193.6
   238.0
   539.0
   520.3
   557.7
   153.0
   438.1
   277.8
   566.1
   590.4