# vtk DataFile Version 3.0
Landscape
ASCII
DATASET UNSTRUCTURED_GRID
POINTS      24640 float
           0.000           0.000           0.000
        1600.000           0.000           0.000
           0.000        1600.000           0.000
         533.333         533.333           0.000
        1820.535        1836.129         175.605
        1600.000           0.000           0.000
        3200.000           0.000           0.000
        2206.845         612.043         366.977
        1764.141        1366.604         366.977
        4436.497        1560.645         229.660
        3200.000           0.000           0.000
        4800.000           0.000           0.000
        4145.499         520.215         357.349
        4506.161        1261.551         357.349
        6234.052        1737.813          61.998
        4800.000           0.000           0.000
        6400.000           0.000           0.000
        5811.350         579.271         368.264
        5688.891        1077.177         368.264
        8231.839        1585.959         197.434
        6400.000           0.000           0.000
        8000.000           0.000           0.000
        8003.439        1227.541         380.739
        7828.821        1237.037         411.695
        8178.056        1218.044         349.782
        8231.839        1585.959         197.434
        8000.000           0.000           0.000
        9600.000           0.000           0.000
        8610.613         528.653         349.782
        8178.056        1218.044         349.782
       10114.256        2299.635         180.074
       10506.534         877.165          58.243
       11192.297        1979.624         139.449
       10604.362        1718.808         385.677
       10602.443        2154.719         385.677
       11192.297        1979.624         139.449
       11200.000           0.000           0.000
       12800.000           0.000           0.000
       11406.911        1430.921         389.209
       11194.521        1408.003         368.922
       11619.301        1453.838         409.496
       14535.388        1860.001          66.538
       12800.000           0.000           0.000
       14400.001           0.000           0.000
       14186.605        1167.781         364.607
       13888.095        1166.227         386.580
       14485.115        1169.335         342.633
       14535.388        1860.001          66.538
       14400.001           0.000           0.000
       16000.000           0.000           0.000
       14978.463         620.000         342.633
       14485.115        1169.335         342.633
       17224.315        1919.917         343.177
       16000.000           0.000           0.000
       17600.000           0.000           0.000
       16941.438         639.972         405.092
       17251.152        1782.769         405.092
       18961.790        1751.968          39.018
       17600.000           0.000           0.000
       19200.000           0.000           0.000
       18587.263         583.989         356.722
       18394.627        1022.302         356.722
        4436.497        1560.645         229.660
        1820.535        1836.129         175.605
        3200.000           0.000           0.000
        3152.344        1132.258         554.485
        3393.992        1670.430         554.485
       23731.335        1792.943         202.163
       22400.000           0.000           0.000
       24000.001           0.000           0.000
       23377.112         597.648         368.661
       23791.964        1388.339         368.661
       25712.931        1511.197          53.794
       24000.001           0.000           0.000
       25599.999           0.000           0.000
       25104.310         503.732         366.805
       25038.693         916.365         366.805
       25712.931        1511.197          53.794
       27200.000           0.000           0.000
       27507.238        1603.221         213.565
       26806.723        1038.139         376.962
       26299.016         915.603         356.815
       27441.734        1261.411         356.741
       27004.534        1577.439         416.377
       27507.238        1603.221         213.565
       27200.000           0.000           0.000
       28800.001           0.000           0.000
       27835.746         534.407         356.741
       27441.734        1261.411         356.741
       30065.602        1613.570         368.715
       28800.001           0.000           0.000
       30400.000           0.000           0.000
       29755.201         537.857         417.150
       30005.307        1536.697         417.150
       31040.554         771.051         204.897
       30065.602        1613.570         368.715
       30400.000           0.000           0.000
       30623.734        1000.567         402.143
       30914.159         618.906         288.831
       30333.309        1382.227         515.456
       31415.600        1997.898         132.343
       33371.579        1994.991          55.278
       33224.678        2857.386          77.504
       32139.805        2171.085         421.869
       32132.707        1996.832         414.170
       32146.903        2345.338         429.568
       34548.701        1811.800         274.055
       34459.486        2336.808         190.160
       33371.579        1994.991          55.278
       34126.589        2047.867         345.790
       34522.735        1964.605         345.790
        6234.052        1737.813          61.998
        6043.012        3262.445         125.776
        5160.666        3300.186         270.076
        5812.577        2766.815         378.246
        5412.547        3289.412         378.246
       37099.539        1414.823         362.571
       35200.000           0.000           0.000
       36800.001           0.000           0.000
       36366.513         471.608         373.589
       37097.561        1405.478         373.589
       37099.539        1414.823         362.571
       36800.001           0.000           0.000
       38399.999           0.000           0.000
       37132.932        1372.745         391.233
       37097.561        1405.478         373.589
       37168.303        1340.012         408.877
       39191.316         917.871          39.620
       38399.999           0.000           0.000
       40000.000           0.000           0.000
       39197.105         305.957         257.548
       38838.054         508.113         257.548
       40125.312        1643.514          48.327
       41599.998           0.000           0.000
       41840.942        1855.796         314.431
       41188.751        1166.437         391.377
       40720.486         980.202         361.876
       41815.787        1662.053         397.347
       41562.900        1821.393         429.899
       41840.942        1855.796         314.431
       41599.998           0.000           0.000
       43200.002           0.000           0.000
       42213.647         618.599         397.347
       41815.787        1662.053         397.347
       43418.644        1867.336          74.946
       43200.002           0.000           0.000
       44800.000           0.000           0.000
       43806.215         622.445         348.012
       43339.197        1188.815         348.012
       34548.701        1811.800         274.055
       37099.539        1414.823         362.571
       36841.038        3085.085         156.608
       36163.093        2103.903         592.281
       36255.473        1546.182         658.025
       37041.878        1787.390         514.570
       35187.566        2166.659         559.926
       48116.282        1628.322         142.360
       49975.028        1831.460         326.810
       48146.017        3166.706         355.006
       49247.430        2175.999         590.694
       49530.303        1782.857         512.044
       48964.557        2569.141         669.344
       10114.256        2299.635         180.074
        8231.839        1585.959         197.434
       10506.534         877.165          58.243
        8983.603        1654.583         484.680
        9108.809        1918.443         510.354
        8858.396        1390.724         459.005
       52954.322        1538.422         128.147
       52800.002           0.000           0.000
       54400.001           0.000           0.000
       53384.775         512.807         329.370
       52904.580        1042.540         329.370
       55816.240        1531.934         168.491
       54400.001           0.000           0.000
       55999.999           0.000           0.000
       55656.618        1123.167         363.539
       55446.859        1132.377         387.185
       55866.378        1113.957         339.894
       55816.240        1531.934         168.491
       55999.999           0.000           0.000
       57600.002           0.000           0.000
       56472.081         510.645         339.894
       55866.378        1113.957         339.894
       38196.713        1837.356          85.537
       37099.539        1414.823         362.571
       38399.999           0.000           0.000
       37898.751        1084.060         380.391
       38268.603        1187.597         347.150
       37168.303        1340.012         408.877
       37219.023        1460.838         419.051
       59004.449        1641.677          47.156
       57600.002           0.000           0.000
       59200.001           0.000           0.000
       58601.484         547.226         319.037
       59084.937         965.974         319.037
       25712.931        1511.197          53.794
       25600.029        2863.835         109.640
       23731.335        1792.943         202.163
       24321.574        1929.527         456.178
       24347.914        2146.286         482.091
       24295.234        1712.767         430.265
[...]
POINT_DATA      24640
SCALARS height float 1
LOOKUP_TABLE default
     0.0
     0.0
     0.0
     0.0
   175.6
     0.0
     0.0
   367.0
   367.0
   229.7
     0.0
     0.0
   357.3
   357.3
    62.0
     0.0
     0.0
   368.3
   368.3
   197.4
     0.0
     0.0
   380.7
   411.7
   349.8
   197.4
     0.0
     0.0
   349.8
   349.8
   180.1
    58.2
   139.4
   385.7
   385.7
   139.4
     0.0
     0.0
   389.2
   368.9
   409.5
    66.5
     0.0
     0.0
   364.6
   386.6
   342.6
    66.5
     0.0
     0.0
   342.6
   342.6
   343.2
     0.0
     0.0
   405.1
   405.1
    39.0
     0.0
     0.0
   356.7
   356.7
   229.7
   175.6
     0.0
   554.5
   554.5
   202.2
     0.0
     0.0
   368.7
   368.7
    53.8
     0.0
     0.0
   366.8
   366.8
    53.8
     0.0
   213.6
   377.0
   356.8
   356.7
   416.4
   213.6
     0.0
     0.0
   356.7
   356.7
   368.7
     0.0
     0.0
   417.2
   417.2
   204.9
   368.7
     0.0
   402.1
   288.8
   515.5
   132.3
    55.3
    77.5
   421.9
   414.2
   429.6
   274.1
   190.2
    55.3
   345.8
   345.8
    62.0
   125.8
   270.1
   378.2
   378.2
   362.6
     0.0
     0.0
   373.6
   373.6
   362.6
     0.0
     0.0
   391.2
   373.6
   408.9
    39.6
     0.0
     0.0
   257.5
   257.5
    48.3
     0.0
   314.4
   391.4
   361.9
   397.3
   429.9
   314.4
     0.0
     0.0
   397.3
   397.3
    74.9
     0.0
     0.0
   348.0
   348.0
   274.1
   362.6
   156.6
   592.3
   658.0
   514.6
   559.9
   142.4
   326.8
   355.0
   590.7
   512.0
   669.3
   180.1
   197.4
    58.2
   484.7
   510.4
   459.0
   128.1
     0.0
     0.0
   329.4
   329.4
   168.5
     0.0
     0.0
   363.5
   387.2
   339.9
   168.5
     0.0
     0.0
   339.9
   339.9
    85.5
   362.6
     0.0
   380.4
   347.2
   408.9
   419.1
    47.2
     0.0
     0.0
   319.0
   319.0
    53.8
   109.6
   202.2
   456.2
   482.1
   430.3
   287.4
     0.0
     0.0
   400.9
   419.1
   382.8
    40.9
     0.0
     0.0
   242.2
   242.2
   218.0
    60.7
   120.3
   469.3
   469.3
    66.5
   139.4
     0.0
   438.0
   386.6
   409.5
   492.5
    90.3
     0.0
     0.0
   339.0
   310.9
   367.0
   162.1
     0.0
     0.0
   373.8
   398.5
   349.0
    78.9
   360.5
   162.1
   385.6
   385.6
   295.7
    47.2
     0.0
   362.5
   319.0
   405.9
   143.0
   304.1
   295.7
   570.3
   633.7
   506.8
    39.0
   281.5
    81.9
   469.5
   430.1
   509.0
   119.9
   266.3
   281.5
   503.0
   562.8
   443.3
   343.2
    66.5
     0.0
   505.4
   505.4
    58.2
   197.4
     0.0
   459.0
   459.0
   175.6
     0.0
     0.0
   430.1
   367.0
   493.1
   281.5
     0.0
     0.0
   406.0
   427.9
   384.1
   133.6
     0.0
   119.9
   287.6
   287.6
    38.9
     0.0
     0.0
   351.2
   351.2
    38.9
     0.0
   128.1
   362.3
   359.6
   329.4
   392.4
    62.0
   229.7
     0.0
   385.4
   368.3
   357.3
   426.9
    38.9
   128.1
    84.4
   421.7
   451.0
   392.4
    90.3
     0.0
     0.0
   310.9
   310.9
    95.9
   205.2
   139.4
   526.1
   513.9
   538.4
   168.5
   128.1
     0.0
   452.9
   387.2
   518.7
   368.7
   213.6
     0.0
   514.2
   417.2
   611.2
   386.9
   205.2
    95.9
   553.7
   538.4
   568.9
   295.7
     0.0
     0.0
   372.2
   372.2
   143.0
     0.0
     0.0
   397.4
   397.4
   194.6
   441.2
   109.6
   506.1
   499.9
   512.3
   152.4
   281.5
   266.3
   562.2
   577.3
   562.8
   549.9
   255.7
    95.9
   343.2
   545.4
   531.2
   578.2
   533.0
    39.0
    81.9
   255.7
   446.9
   446.9
   132.3
    24.1
    55.3
   414.2
   414.2
    72.3
   148.5
   119.4
   477.9
   497.3
   458.4
   142.4
   315.5
   326.8
   506.0
   575.0
   512.0
   442.9
   156.6
   362.6
    85.5
   466.8
   419.1
   514.6
    48.3
    39.6
     0.0
   281.6
   281.6
    48.3
    85.5
    39.6
   336.0
   390.4
   281.6
   243.5
   358.4
   213.6
   610.4
   542.8
   598.8
   657.2
    74.9
   314.4
     0.0
   392.7
   348.0
   437.3
   142.4
    72.3
     0.0
   400.3
   326.2
   401.8
   462.7
   311.1
   109.6
   358.4
   535.2
   472.7
   597.6
   120.3
     0.0
     0.0
   376.6
   353.0
   400.2
   109.4
    46.4
   311.1
   419.8
   419.8
   237.8
   128.1
   168.5
   546.5
   518.7
   574.3
    72.3
   119.4
    74.9
   436.6
   414.8
   458.4
    47.2
   168.5
     0.0
   492.2
   492.2
    90.3
   311.1
     0.0
   442.2
   407.4
   477.0
   162.1
    90.3
     0.0
   434.2
   398.5
   367.0
   501.0
   143.0
   295.7
     0.0
   434.3
   397.4
   372.2
   506.8
   142.4
   148.5
    72.3
   473.4
   484.1
   462.7
   222.0
   355.0
   441.3
   572.5
   503.9
   641.1
    84.4
   355.0
   326.8
   554.2
   453.0
   669.3
   542.0
   218.0
    40.9
    60.7
   440.3
   497.7
   373.0
   469.3
    46.4
   120.3
     0.0
   418.7
   400.2
   437.2
   201.0
   197.4
   328.2
   576.5
   561.2
   581.4
   591.7
   244.4
     0.0
     0.0
   410.5
   440.3
   380.7
   244.4
     0.0
     0.0
   489.5
   380.7
   598.4
   150.3
    90.3
   162.1
   521.4
   501.0
   541.7
   360.5
   244.4
   173.3
   583.0
   638.2
   517.4
   618.4
   150.3
   182.5
   311.1
   550.0
   557.2
   532.9
   556.8
     0.0
   244.4
     0.0
   526.1
   598.4
   453.8
    62.0
   270.1
   229.7
   494.0
   561.1
   426.9
   180.1
   205.2
   328.2
   477.8
   544.4
   411.2
   446.2
   175.6
   229.7
   579.9
   554.5
   605.2
     0.0
     0.0
   175.6
   514.6
   493.1
   536.1
   183.2
   175.6
   446.2
   559.9
   535.7
   584.1
   270.1
   446.2
   229.7
   594.3
   561.1
   605.2
   628.5
   534.7
   446.2
   270.1
   707.9
   787.4
   628.5
   373.6
   441.2
   491.6
   716.5
   736.1
   688.2
   726.2
    53.8
   358.4
   109.6
   472.7
   472.7
   534.7
   183.2
   446.2
   657.3
   787.4
   584.1
   645.3
   183.2
     0.0
     0.0
   467.9
   503.8
   432.0
   237.8
    84.4
   128.1
   456.1
   451.0
   461.3
    95.9
   139.4
    66.5
   503.2
   492.5
   513.9
    95.9
    66.5
   343.2
   518.3
   505.4
   531.2
   133.6
   119.9
   281.5
   365.4
   443.3
   287.6
    53.8
   202.2
     0.0
   388.9
   366.8
   368.7
   430.3
   227.0
   469.2
   178.7
   476.2
   522.7
   429.7
    39.0
   255.7
   343.2
   491.3
   427.7
   578.2
   446.9
   168.4
   255.7
    81.9
   490.5
   490.5
   243.5
   213.6
   368.7
   593.6
   611.2
   598.8
   547.5
   132.3
   368.7
   204.9
   465.0
   474.7
   515.5
   419.1
   214.4
   190.2
   156.6
   532.3
   524.0
   540.6
   119.4
   314.4
    74.9
   474.3
   511.4
   437.3
   132.3
   204.9
    24.1
   399.8
   380.4
   419.1
   132.3
   134.6
   243.5
   513.6
   530.5
   496.8
    72.3
    74.9
     0.0
   414.8
   414.8
   175.2
   314.4
   119.4
   534.0
   556.5
   511.4
   190.2
    77.5
    55.3
   385.3
   385.3
   194.6
   311.1
   471.8
   642.6
   579.3
   706.0
   152.4
   168.4
    81.9
   513.6
   513.6
   433.6
    85.5
   112.4
   512.3
   557.0
   463.4
   553.3
   649.5
   358.4
   243.5
   693.8
   730.4
   657.2
   540.3
   386.9
   475.4
   782.6
   786.5
   740.3
   833.0
    38.9
    84.4
   326.8
   453.0
   453.0
    40.9
   110.6
   287.4
   433.0
   433.0
   240.6
   168.5
    47.2
   524.2
   578.1
   492.2
   485.6
    85.8
    47.2
   295.7
   444.0
   405.9
   482.0
   494.3
   119.4
   148.5
   540.3
   497.3
   583.2
   109.4
   120.3
    46.4
   440.8
   444.4
   437.2
   110.6
   304.1
   287.4
   542.0
   626.6
   433.0
   499.8
   357.0
   441.3
   547.3
   735.2
   686.1
   794.1
   737.4
   169.6
    84.4
   237.8
   515.4
   461.3
   569.5
   165.5
   241.4
   433.6
   602.6
   636.6
   568.7
   455.1
   237.8
   168.5
   617.4
   574.3
   660.6
   240.6
    47.2
    85.8
   485.6
   485.6
   304.1
    85.8
   295.7
   553.9
   633.7
   482.0
   528.9
   528.6
   169.6
   237.8
   597.4
   569.5
   625.2
   150.3
   311.1
    90.3
   504.9
   477.0
   532.9
   218.0
   320.1
   110.6
   516.4
   522.4
   510.3
   218.0
   110.6
    40.9
   504.0
   510.3
   497.7
   142.0
    85.8
   304.1
   564.5
   528.9
   600.0
   373.6
   266.3
   441.2
   673.9
   652.7
   627.4
   726.2
   334.5
   162.1
   379.0
   651.9
   611.1
   692.7
   109.4
   518.6
   120.3
   496.0
   444.4
   547.7
   178.7
   386.9
    95.9
   581.6
   568.9
   594.4
   360.5
   379.0
   162.1
   664.9
   664.9
     0.0
   244.4
     0.0
   453.8
   453.8
   334.5
   611.5
   652.3
   789.2
   718.4
   860.1
   336.0
   173.3
   189.1
   504.0
   572.5
   435.5
   289.0
   201.0
   351.0
   565.5
   636.3
   494.7
   234.4
   183.2
   534.7
   612.4
   565.7
   645.3
   662.2
   360.5
   173.3
   379.0
   632.9
   623.5
   664.9
   618.4
     0.0
   173.3
   244.4
   469.3
   517.4
   421.1
   386.9
   328.2
   205.2
   609.7
   675.1
   544.4
   183.2
     0.0
   175.6
   527.0
   535.7
   536.1
   503.8
   289.0
   270.1
   125.8
   482.9
   587.5
   378.2
   289.0
   351.0
   523.3
   658.9
   681.6
   636.3
   190.2
   500.9
    77.5
   500.6
   385.3
   616.0
   500.9
   134.6
    77.5
   523.6
   523.6
   152.4
    81.9
   281.5
   543.1
   577.3
   509.0
   786.7
   657.1
   816.7
  1001.9
   930.9
  1001.0
  1091.0
   289.0
   125.8
   201.0
   494.7
   494.7
   301.8
   534.7
   523.3
   740.8
   715.4
   845.0
   654.1
   227.0
   168.4
   469.2
   584.8
   570.0
   599.6
   649.5
   311.1
   358.4
   653.4
   730.4
   597.6
   666.3
   395.1
   134.6
   188.2
   546.8
   546.8
   228.8
   634.9
   335.2
   685.3
   644.1
   726.5
   190.2
   561.8
   500.9
   660.1
   746.5
   616.0
   620.8
   433.6
   156.6
    85.5
   557.0
   557.0
   175.2
   112.4
   314.4
   517.5
   517.7
   556.5
   485.6
   395.1
   188.2
   414.6
   693.4
   693.4
   238.3
   494.3
   315.2
   654.9
   625.9
   683.9
   322.5
   320.1
   599.4
   653.7
   616.5
   690.8
   419.3
   134.6
   500.9
   617.7
   523.6
   711.8
   331.2
   188.2
   419.3
   659.7
   611.3
   708.1
   444.6
   528.6
   455.1
   773.3
   802.0
   731.4
   791.5
   214.4
   433.6
   376.8
   680.3
   609.6
   751.0
   214.4
   376.8
   561.8
   711.8
   711.8
   301.8
   197.8
   234.4
   555.6
   509.4
   601.9
   441.3
   355.0
    84.4
   575.8
   542.0
   641.1
   565.5
   169.6
   441.3
    84.4
   591.2
   565.5
   616.9
   238.3
   175.2
   119.4
   503.5
   503.5
   528.6
   237.8
   455.1
   731.3
   660.6
   802.0
   240.6
   444.6
   455.1
   667.9
   604.4
   731.4
   329.8
   547.3
   441.3
   740.4
   686.7
   794.1
   376.8
   419.3
   561.8
   714.4
   753.2
   711.8
   682.5
   342.7
   267.7
   168.4
   594.5
   557.6
   631.5
   207.7
   304.1
   110.6
   509.5
   519.3
   499.8
   207.7
   142.0
   304.1
   569.0
   519.3
   600.0
   567.2
   817.1
   528.6
   444.6
   825.0
   876.5
   791.5
   842.0
   505.5
   329.8
   169.6
   539.8
   539.8
   240.6
   142.0
   288.3
   546.6
   494.9
   598.3
   279.0
   518.6
   182.5
   602.9
   647.5
   558.2
   267.6
   182.5
   150.3
   579.7
   602.6
   556.8
   279.0
   320.1
   518.6
   662.2
   680.6
   647.5
   658.9
   599.4
   320.1
   523.5
   759.9
   690.8
   828.9
   523.5
   320.1
   279.0
   690.0
   658.9
   721.1
   267.6
   279.0
   182.5
   626.5
   602.6
   650.5
   334.5
   267.6
   150.3
   579.6
   579.6
   456.8
   703.0
   817.1
   949.0
  1042.1
   855.8
   334.5
   652.3
   520.6
   795.6
   872.0
   719.3
     0.0
   173.3
     0.0
   421.1
   421.1
   336.0
   379.0
   173.3
   620.9
   680.7
   623.5
   572.5
     0.0
   189.1
   173.3
   435.5
   435.5
   213.2
   189.1
     0.0
   481.8
   481.8
   471.8
   786.7
   816.7
   947.2
  1091.0
   803.4
   558.4
   419.3
   376.8
   740.3
   798.0
   682.5
   469.2
   267.7
   602.9
   737.4
   651.2
   823.7
    86.3
     0.0
     0.0
   220.3
   220.3
    95.0
    86.3
   183.2
   411.3
   466.8
   355.7
   540.3
   328.2
   386.9
   725.1
   726.2
   675.1
   786.5
   342.7
   168.4
   152.4
   535.6
   513.6
   557.6
   266.0
   386.9
   178.7
   609.2
   624.1
   594.4
   469.2
   168.4
   267.7
   625.4
   599.6
   651.2
   604.0
   523.3
   351.0
   776.3
   871.0
   681.6
   429.2
   266.0
   385.1
   645.5
   601.2
   689.8
   429.2
   475.4
   266.0
   763.3
   763.3
   373.6
   634.9
   242.9
   699.3
   699.3
   419.3
   500.9
   561.8
   735.5
   746.5
   711.8
   753.2
   432.1
   342.7
   565.2
   698.3
   661.9
   734.7
   228.8
   242.9
   634.9
   594.9
   644.1
   545.7
   602.9
   686.1
   385.1
   832.5
   750.3
   914.6
   786.7
   311.1
   657.1
   930.9
   930.9
   657.1
   311.1
   649.5
   814.5
   666.3
   962.8
   660.9
   376.8
   433.6
   755.4
   740.4
   751.0
   776.3
   395.1
   657.1
   649.5
   836.3
   723.5
   962.8
   792.1
   647.1
   657.1
   414.6
   856.6
   958.4
   809.3
   784.5
   165.5
   433.6
   112.4
   561.0
   553.3
   568.7
   357.0
   222.0
   441.3
   686.1
   686.1
   518.1
   169.6
   528.6
   688.3
   572.0
   625.2
   836.8
   518.1
   817.1
   682.5
   925.9
  1009.9
   841.9
   241.4
   660.9
   433.6
   688.5
   636.6
   740.4
   407.5
   747.0
   779.9
  1054.7
  1054.7
   311.8
   647.1
   414.6
   695.5
   606.5
   784.5
   665.1
   901.8
   971.6
  1092.9
  1178.0
  1007.8
   407.5
   386.1
   238.3
   659.3
   743.5
   551.5
   649.2
   531.7
   315.2
   494.3
   731.4
   807.3
   683.9
   726.3
   357.0
   547.3
   531.7
   797.3
   857.1
   737.4
   799.0
   531.7
   547.3
   883.5
   909.9
   857.1
   597.2
   315.2
   531.7
   802.6
   726.3
   878.8
   540.3
   696.7
   604.0
   908.1
   964.3
   862.3
   908.6
   437.1
   523.3
   604.0
   809.1
   765.8
   871.0
   779.7
   429.2
   686.1
   644.1
   865.8
   776.9
   954.8
   240.6
   288.3
   444.6
   630.5
   662.6
   598.3
   179.3
   142.0
   207.7
   575.0
   567.2
   582.9
   518.1
   682.5
   237.5
   841.9
   841.9
   399.4
   336.0
   213.2
   595.3
   567.0
   623.6
   179.3
   288.3
   142.0
   518.2
   518.2
   611.0
   179.3
   294.1
   659.1
   596.5
   721.6
   440.3
   279.0
   267.6
   676.7
   702.8
   650.5
   294.1
   179.3
   207.7
   589.7
   582.9
   596.5
   380.6
   456.8
   286.3
   704.2
   661.4
   746.9
   599.4
   523.5
   385.9
   786.4
   779.0
   828.9
   758.8
   703.0
   682.5
   817.1
  1026.4
  1042.1
  1009.9
  1023.8
   611.0
   286.3
   179.3
   666.1
   666.1
  1031.0
   677.8
   816.7
  1088.7
  1040.4
  1137.0
   469.2
   602.9
   385.1
   750.4
   689.7
   750.3
   823.7
   718.4
   279.0
   591.0
   842.6
   736.6
   948.5
   440.3
   698.6
   591.0
   874.6
   933.4
   815.8
   652.3
   593.0
   504.1
   857.0
   860.1
   849.4
   865.0
   652.3
   504.1
   520.6
   849.2
   820.2
   872.0
   865.0
   399.4
   611.5
   336.0
   684.6
   745.5
   623.6
     0.0
   213.2
     0.0
   539.6
   539.6
   504.1
   795.4
   520.6
   846.7
   873.3
   820.2
   336.4
   399.4
   158.2
   584.9
   549.2
   620.6
   301.8
   234.4
   534.7
   652.2
   715.4
   662.2
   601.9
    95.0
     0.0
     0.0
   434.9
   434.9
    97.8
    95.0
   234.4
   416.9
   438.8
   394.9
   540.3
   604.0
   351.0
   862.3
   862.3
   437.1
   604.0
   701.3
   815.0
   890.8
   779.7
   768.0
   677.8
   634.9
   560.4
   883.1
   910.6
   847.8
   901.7
   242.6
   311.8
   414.6
   538.3
   470.1
   606.5
   816.7
   677.8
   560.4
   955.9
   932.0
   901.7
  1040.4
   429.2
   696.7
   475.4
   777.7
   763.3
   792.1
   844.5
   604.0
   696.7
   988.8
   965.9
   964.3
  1034.6
   502.5
   311.8
   531.5
   727.2
   630.7
   823.8
   335.2
   677.8
   628.0
   930.7
   930.7
   665.1
   565.2
   934.4
   950.8
   882.5
  1019.1
   242.6
   331.2
   311.8
   489.2
   557.6
   420.7
   335.2
   731.4
   565.2
   795.0
   901.4
   688.5
   421.8
   558.4
   660.9
   861.3
   932.6
   776.7
   828.2
   647.1
   816.7
   657.1
   984.1
   958.4
  1001.0
  1007.5
   644.1
   844.5
   696.7
  1006.7
   985.3
  1034.6
  1015.5
   407.5
   779.9
   421.8
   781.6
   814.5
   748.6
   887.2
   983.8
  1082.4
  1220.8
  1192.3
  1267.3
  1169.1
   558.4
   376.8
   660.9
   854.5
   776.3
   932.6
   421.8
   660.9
   241.4
   776.7
   776.7
   502.5
   647.1
   311.8
   866.4
   866.4
  1002.1
  1031.6
   644.1
  1288.9
  1288.9
   755.4
   752.6
   419.3
   917.2
   835.1
   827.4
  1052.9
   576.3
   237.5
   777.2
   888.5
   888.5
   489.0
   597.2
   693.5
   865.5
   809.4
   921.5
   407.5
   421.8
   241.4
   748.6
   748.6
  1091.8
  1031.0
  1100.4
  1222.9
  1222.9
  1222.9
   878.7
   816.7
   647.1
  1063.7
  1146.5
  1007.5
   967.4
   682.5
   777.2
   237.5
   995.4
   995.4
   799.0
   597.2
   531.7
   918.7
   909.9
   878.8
   977.8
   798.8
   597.2
   799.0
  1046.6
   977.8
  1115.3
   576.3
   777.2
   938.9
   987.9
  1087.3
   888.5
   752.6
   950.0
   731.6
  1071.4
  1055.1
  1096.3
  1064.0
   456.8
   817.1
   444.6
   816.7
   783.0
   842.0
   855.8
   286.3
   288.3
   179.3
   557.5
   596.7
   518.2
  1030.8
   682.5
   703.0
  1035.7
  1047.5
  1023.8
   901.8
   934.4
  1096.9
  1217.8
  1211.5
  1229.2
  1216.9
   752.6
   731.6
   502.5
   968.5
   873.0
  1064.0
   385.9
   523.5
   502.6
   815.2
   851.4
   779.0
   718.4
   591.0
   945.1
   953.0
   957.5
   948.5
   380.6
   798.7
   703.0
   916.5
  1042.2
   790.8
   606.7
   502.6
   932.9
   903.5
   837.2
   969.8
  1100.5
   945.1
   927.3
  1212.6
  1223.0
  1191.0
  1219.4
  1030.8
  1025.8
   682.5
  1179.6
  1047.5
  1311.7
   734.9
   945.1
   988.4
  1151.7
  1072.4
  1231.0
   927.3
   945.1
   591.0
  1074.2
   957.5
  1191.0
   698.6
   927.3
   591.0
   986.5
   933.4
  1039.7
   887.2
  1082.4
   927.3
  1182.0
  1194.9
  1169.1
   734.9
   718.4
   945.1
  1051.9
  1072.4
  1031.4
    85.7
   213.2
     0.0
   480.3
   420.9
   539.6
   242.3
   462.1
   504.1
   797.0
   797.0
   336.4
   504.1
   593.0
   786.2
   849.4
   723.1
   399.4
    85.7
   158.2
   531.5
   549.2
   513.7
     0.0
    85.7
     0.0
   390.3
   390.3
   272.0
    85.7
     0.0
   414.2
   438.0
   390.3
  1009.1
   779.9
   747.0
  1068.6
  1064.1
  1054.7
  1092.8
   971.6
   686.1
   602.9
   966.3
  1017.9
   914.6
   173.1
   197.8
   301.8
   524.7
   490.6
   558.7
    56.3
    97.8
   120.4
   432.7
   433.9
   431.6
    97.8
     0.0
     0.0
   480.8
   480.8
   229.4
   173.1
   301.8
   576.2
   593.7
   558.7
   173.1
   379.6
   120.4
   521.3
   499.0
   543.5
   568.4
   701.3
   604.0
   888.0
   899.1
   890.8
   871.4
   731.4
   934.4
   565.2
   969.9
   901.4
  1038.4
  1002.1
   686.1
   971.6
  1121.4
  1033.5
  1017.9
  1264.9
  1031.0
   971.4
   677.8
  1151.4
  1029.5
  1273.3
  1051.8
  1096.9
   934.4
  1228.1
  1227.0
  1229.2
   901.8
  1100.3
   971.6
  1200.1
  1222.8
  1178.0
  1194.1
   731.4
  1051.8
   934.4
  1132.7
  1038.4
  1227.0
  1031.6
   844.5
   644.1
  1094.6
  1173.7
  1015.5
   731.4
   971.4
  1051.8
  1171.7
  1070.8
  1272.6
   755.4
   419.3
   558.4
   812.7
   798.0
   827.4
  1100.4
  1031.0
   816.7
  1154.5
  1117.8
  1137.0
  1222.9
   502.5
   878.7
   647.1
   916.9
   866.4
   967.4
   878.7
  1100.4
   816.7
  1163.2
  1146.5
  1117.8
  1196.6
  1100.3
   798.8
   799.0
  1121.3
  1112.3
  1115.3
  1139.3
   702.0
   836.0
   421.8
  1009.7
  1009.7
   836.0
   558.4
   421.8
   872.1
   915.9
   828.2
   755.4
   975.0
   950.0
  1161.7
  1242.8
  1080.5
  1100.4
   971.4
  1091.8
  1278.9
  1277.0
  1276.9
  1283.0
  1002.1
  1100.3
  1100.3
  1223.9
  1222.8
  1222.8
  1226.1
   782.0
   504.1
   462.1
   837.7
   898.2
   797.0
   834.8
   693.5
  1009.1
   747.0
  1028.2
   992.3
  1064.1
   693.5
   798.8
  1043.0
  1078.5
  1019.4
  1137.7
   779.9
   702.0
   421.8
   927.7
   814.5
  1040.8
   975.0
  1100.3
   950.0
  1249.9
  1239.3
  1242.8
  1266.4
  1025.8
   938.9
   777.2
  1155.9
  1100.1
  1087.3
  1254.3
  1038.5
   779.9
  1009.1
  1184.2
  1101.5
  1092.8
  1300.6
  1042.0
   836.0
   702.0
  1071.2
  1132.7
  1009.7
   576.3
   938.9
   799.0
  1048.0
  1136.5
   959.4
  1025.8
   777.2
   682.5
  1047.8
   995.4
  1100.1
  1100.3
   798.8
  1100.3
  1134.5
  1129.6
  1139.3
  1100.3
   731.6
   950.0
  1143.4