# vtk DataFile Version 3.0
Landscape
ASCII
DATASET UNSTRUCTURED_GRID
POINTS      22048 float
           0.000           0.000           0.000
        1600.000           0.000           0.000
           0.000        1600.000           0.000
         533.333         533.333           0.000
        1820.535        1836.129         164.442
        1600.000           0.000           0.000
        3200.000           0.000           0.000
        2206.845         612.043         364.208
        1761.518        1344.765         364.208
        4436.497        1560.645         212.122
        3200.000           0.000           0.000
        4800.000           0.000           0.000
        4145.499         520.215         353.065
        4514.201        1227.035         353.065
        6234.052        1737.813          95.130
        4800.000           0.000           0.000
        6400.000           0.000           0.000
        5811.350         579.271         380.091
        5767.435        1172.358         380.091
        8231.839        1585.959         187.907
        6400.000           0.000           0.000
        8000.000           0.000           0.000
        7994.740        1212.005         378.472
        7814.102        1224.294         409.631
        8175.377        1199.716         347.314
        8231.839        1585.959         187.907
        8000.000           0.000           0.000
        9600.000           0.000           0.000
        8610.613         528.653         347.314
        8175.377        1199.716         347.314
       10114.256        2299.635         281.472
       10506.534         877.165          80.623
       11192.297        1979.624         215.075
       10604.362        1718.808         478.320
       10568.762        2164.717         478.320
       11192.297        1979.624         215.075
       11200.000           0.000           0.000
       12800.000           0.000           0.000
       11351.372        1582.127         402.794
       11193.873        1574.438         384.176
       11508.870        1589.815         421.412
       14535.388        1860.001         121.621
       12800.000           0.000           0.000
       14400.001           0.000           0.000
       14270.881        1311.479         380.584
       14048.219        1337.849         405.431
       14493.543        1285.109         355.738
       14535.388        1860.001         121.621
       14400.001           0.000           0.000
       16000.000           0.000           0.000
       14978.463         620.000         355.738
       14493.543        1285.109         355.738
       17224.315        1919.917         252.932
       16000.000           0.000           0.000
       17600.000           0.000           0.000
       16941.438         639.972         388.739
       17288.219        1593.338         388.739
       18961.790        1751.968          69.086
       17600.000           0.000           0.000
       19200.000           0.000           0.000
       18587.263         583.989         367.670
       18459.258        1105.452         367.670
        4436.497        1560.645         212.122
        1820.535        1836.129         164.442
        3200.000           0.000           0.000
        3152.344        1132.258         528.371
        3387.274        1671.137         528.371
       23731.335        1792.943         193.863
       22400.000           0.000           0.000
       24000.001           0.000           0.000
       23377.112         597.648         366.917
       23794.444        1371.787         366.917
       25712.931        1511.197          97.948
       24000.001           0.000           0.000
       25599.999           0.000           0.000
       25104.310         503.732         382.961
       25162.781        1025.839         382.961
       25712.931        1511.197          97.948
       27200.000           0.000           0.000
       27507.238        1603.221         192.154
       26806.723        1038.139         390.749
       26194.834        1021.475         372.423
       27433.742        1219.706         351.700
       26889.655        1571.547         439.202
       27507.238        1603.221         192.154
       27200.000           0.000           0.000
       28800.001           0.000           0.000
       27835.746         534.407         351.700
       27433.742        1219.706         351.700
       30065.602        1613.570         321.497
       28800.001           0.000           0.000
       30400.000           0.000           0.000
       30015.505        1468.776         394.542
       29938.877        1452.002         408.838
       30092.133        1485.550         380.247
       31040.554         771.051         139.541
       30065.602        1613.570         321.497
       30400.000           0.000           0.000
       30468.200        1010.162         323.574
       30844.266         534.774         266.902
       30092.133        1485.550         380.247
       31415.600        1997.898         250.996
       33371.579        1994.991         141.001
       33224.678        2857.386         230.758
       32103.257        2183.248         522.616
       32008.794        1997.016         493.516
       32197.719        2369.480         551.715
       34548.701        1811.800         334.440
       34459.486        2336.808         266.152
       33371.579        1994.991         141.001
       34126.589        2047.867         411.757
       34518.597        1988.954         411.757
        6234.052        1737.813          95.130
        6043.012        3262.445         208.234
        5160.666        3300.186         419.723
        5812.577        2766.815         492.267
        5309.957        3293.800         492.267
       37099.539        1414.823         264.367
       35200.000           0.000           0.000
       36800.001           0.000           0.000
       36366.513         471.608         351.780
       37056.768        1212.801         351.780
       37099.539        1414.823         264.367
       36800.001           0.000           0.000
       38399.999           0.000           0.000
       37182.259        1200.552         371.187
       37056.768        1212.801         351.780
       37307.750        1188.303         390.594
       39191.316         917.871          60.907
       38399.999           0.000           0.000
       40000.000           0.000           0.000
       39197.105         305.957         268.250
       38856.256         529.226         268.250
       40125.312        1643.514         112.087
       41599.998           0.000           0.000
       41840.942        1855.796         233.172
       41188.751        1166.437         406.055
       40579.069        1137.809         383.193
       41794.219        1495.927         381.243
       41296.784        1788.465         452.429
       41840.942        1855.796         233.172
       41599.998           0.000           0.000
       43200.002           0.000           0.000
       42213.647         618.599         381.243
       41794.219        1495.927         381.243
       43418.644        1867.336         131.256
       43200.002           0.000           0.000
       44800.000           0.000           0.000
       43806.215         622.445         360.789
       43352.222        1300.049         360.789
       34548.701        1811.800         334.440
       37099.539        1414.823         264.367
       36841.038        3085.085         250.026
       36163.093        2103.903         591.392
       35307.020        1693.786         618.181
       36979.381        2191.207         550.525
       35171.642        2157.815         612.797
       48116.282        1628.322         139.325
       49975.028        1831.460         358.830
       48146.017        3166.706         314.955
       49467.386        2051.456         573.500
       49616.164        1792.240         504.021
       49318.608        2310.671         642.979
       10114.256        2299.635         281.472
        8231.839        1585.959         187.907
       10506.534         877.165          80.623
        9221.876        1727.777         500.588
        9535.720        2080.296         533.837
        8908.032        1375.258         467.340
       52954.322        1538.422         230.094
       52800.002           0.000           0.000
       54400.001           0.000           0.000
       53384.775         512.807         355.505
       52925.019        1246.303         355.505
       45576.245        1448.210         113.117
       46228.872        2830.415         241.076
       43557.179        3128.631         210.077
       44634.244        2781.703         533.516
       45082.144        2958.413         563.205
       44186.344        2604.992         503.827
       59004.449        1641.677         144.855
       57600.002           0.000           0.000
       59200.001           0.000           0.000
       58601.484         547.226         347.096
       59061.139        1165.761         347.096
       38196.713        1837.356         131.911
       37099.539        1414.823         264.367
       38399.999           0.000           0.000
       37898.751        1084.060         385.509
       38258.385        1279.954         357.652
       37307.750        1188.303         390.594
       37466.782        1556.252         423.620
       60471.826        1510.939         229.756
       59200.001           0.000           0.000
       60799.999           0.000           0.000
       60157.275         503.646         356.056
       60536.622        1212.615         356.056
       25712.931        1511.197          97.948
       25600.029        2863.835         228.526
       23731.335        1792.943         193.863
       24603.038        2060.454         492.066
       24825.918        2420.216         529.116
[...]
POINT_DATA      22048
SCALARS height float 1
LOOKUP_TABLE default
     0.0
     0.0
     0.0
     0.0
   164.4
     0.0
     0.0
   364.2
   364.2
   212.1
     0.0
     0.0
   353.1
   353.1
    95.1
     0.0
     0.0
   380.1
   380.1
   187.9
     0.0
     0.0
   378.5
   409.6
   347.3
   187.9
     0.0
     0.0
   347.3
   347.3
   281.5
    80.6
   215.1
   478.3
   478.3
   215.1
     0.0
     0.0
   402.8
   384.2
   421.4
   121.6
     0.0
     0.0
   380.6
   405.4
   355.7
   121.6
     0.0
     0.0
   355.7
   355.7
   252.9
     0.0
     0.0
   388.7
   388.7
    69.1
     0.0
     0.0
   367.7
   367.7
   212.1
   164.4
     0.0
   528.4
   528.4
   193.9
     0.0
     0.0
   366.9
   366.9
    97.9
     0.0
     0.0
   383.0
   383.0
    97.9
     0.0
   192.2
   390.7
   372.4
   351.7
   439.2
   192.2
     0.0
     0.0
   351.7
   351.7
   321.5
     0.0
     0.0
   394.5
   408.8
   380.2
   139.5
   321.5
     0.0
   323.6
   266.9
   380.2
   251.0
   141.0
   230.8
   522.6
   493.5
   551.7
   334.4
   266.2
   141.0
   411.8
   411.8
    95.1
   208.2
   419.7
   492.3
   492.3
   264.4
     0.0
     0.0
   351.8
   351.8
   264.4
     0.0
     0.0
   371.2
   351.8
   390.6
    60.9
     0.0
     0.0
   268.2
   268.2
   112.1
     0.0
   233.2
   406.1
   383.2
   381.2
   452.4
   233.2
     0.0
     0.0
   381.2
   381.2
   131.3
     0.0
     0.0
   360.8
   360.8
   334.4
   264.4
   250.0
   591.4
   618.2
   550.5
   612.8
   139.3
   358.8
   315.0
   573.5
   504.0
   643.0
   281.5
   187.9
    80.6
   500.6
   533.8
   467.3
   230.1
     0.0
     0.0
   355.5
   355.5
   113.1
   241.1
   210.1
   533.5
   563.2
   503.8
   144.9
     0.0
     0.0
   347.1
   347.1
   131.9
   264.4
     0.0
   385.5
   357.7
   390.6
   423.6
   229.8
     0.0
     0.0
   356.1
   356.1
    97.9
   228.5
   193.9
   492.1
   529.1
   455.0
   139.3
   187.5
   358.8
   448.3
   504.0
   392.5
   102.2
     0.0
     0.0
   274.6
   274.6
    96.9
   215.3
   407.4
   593.6
   633.3
   554.0
   121.6
   215.1
     0.0
   465.0
   405.4
   421.4
   536.1
   141.0
     0.0
     0.0
   351.8
   325.7
   377.8
   195.2
     0.0
     0.0
   380.6
   404.2
   357.0
    93.2
   350.7
   195.2
   391.1
   391.1
   229.8
   144.9
     0.0
   403.4
   347.1
   459.6
   118.3
   247.4
   229.8
   515.6
   562.9
   468.4
    69.1
   239.4
   146.5
   484.9
   438.6
   531.2
   112.7
   243.1
   239.4
   476.4
   528.2
   424.7
   252.9
   121.6
     0.0
   522.3
   522.3
    80.6
   187.9
     0.0
   467.3
   467.3
   164.4
     0.0
     0.0
   420.9
   364.2
   477.6
   239.4
     0.0
     0.0
   398.3
   421.0
   375.5
   116.6
     0.0
   112.7
   275.7
   275.7
    96.3
     0.0
     0.0
   372.2
   372.2
    96.3
     0.0
   230.1
   400.0
   380.8
   355.5
   451.0
    95.1
   212.1
     0.0
   394.9
   380.1
   353.1
   442.2
    96.3
   230.1
   216.7
   499.9
   548.9
   451.0
   141.0
     0.0
     0.0
   325.7
   325.7
   183.5
   411.7
   215.1
   589.9
   568.2
   611.5
   191.9
   230.1
     0.0
   475.4
   391.5
   559.3
   321.5
   192.2
     0.0
   489.2
   408.8
   569.6
   571.8
   411.7
   183.5
   616.3
   611.5
   621.1
   118.3
     0.0
     0.0
   391.7
   391.7
   333.2
     0.0
     0.0
   408.5
   425.7
   391.3
   600.7
   193.9
   228.5
   572.6
   615.5
   529.1
   618.6
   287.0
   239.4
   243.1
   575.8
   603.4
   528.2
   589.8
   265.5
   183.5
   252.9
   561.0
   558.1
   548.9
   571.2
    69.1
   146.5
   265.5
   463.4
   463.4
   251.0
    54.8
   141.0
   493.5
   493.5
   113.1
     0.0
   305.5
   368.5
   336.8
   354.6
   419.8
   305.5
     0.0
     0.0
   354.6
   354.6
   250.0
   264.4
   131.9
   487.1
   423.6
   550.5
   112.1
    60.9
     0.0
   323.8
   323.8
   112.1
   131.9
    60.9
   381.1
   438.4
   323.8
   488.7
   475.1
   192.2
   663.1
   538.4
   608.1
   785.0
   131.3
   233.2
     0.0
   407.3
   360.8
   453.9
   191.9
     0.0
     0.0
   368.7
   391.5
   345.9
   191.9
     0.0
     0.0
   345.9
   345.9
   139.3
     0.0
   187.5
   392.5
   392.5
   600.2
   228.5
   475.1
   637.7
   609.9
   568.7
   763.5
   215.3
     0.0
     0.0
   396.6
   375.5
   417.7
   266.0
    83.6
   301.1
   515.7
   515.7
   548.3
   230.1
   191.9
   587.4
   559.3
   615.5
   113.1
   210.1
   131.3
   478.6
   453.3
   503.8
   144.9
   191.9
     0.0
   538.8
   538.8
   141.0
   301.1
     0.0
   452.9
   404.4
   501.5
   195.2
   141.0
     0.0
   453.1
   404.2
   377.8
   525.6
   118.3
   229.8
     0.0
   411.2
   391.7
   356.1
   468.4
   139.3
   241.1
   305.5
   507.2
   548.8
   461.1
   508.3
   600.2
   241.1
   315.0
   597.2
   628.2
   573.4
   628.4
   216.7
   315.0
   358.8
   601.2
   543.5
   643.0
   603.2
    96.9
   407.4
   102.2
   486.9
   554.0
   419.8
    83.6
   215.3
     0.0
   450.7
   417.7
   483.7
   505.5
   208.2
   187.9
   576.4
   541.7
   578.1
   629.3
   217.8
     0.0
     0.0
   403.5
   433.8
   373.3
   217.8
     0.0
     0.0
   465.6
   373.3
   557.8
   244.0
   141.0
   195.2
   550.8
   525.6
   575.9
   350.7
   217.8
   178.6
   556.1
   592.9
   503.5
   594.5
   244.0
   484.4
   301.1
   616.4
   647.2
   582.4
   650.7
     0.0
   217.8
     0.0
   494.2
   557.8
   430.7
    95.1
   419.7
   212.1
   503.1
   564.0
   442.2
   281.5
   411.7
   505.5
   646.6
   724.3
   568.8
   365.4
   164.4
   212.1
   545.6
   528.4
   562.9
     0.0
     0.0
   164.4
   496.0
   477.6
   514.4
   185.9
   164.4
   365.4
   537.8
   518.7
   556.9
   419.7
   365.4
   212.1
   605.7
   564.0
   562.9
   675.1
   556.2
   365.4
   419.7
   684.1
   693.2
   675.1
   600.7
   243.1
   193.9
   578.9
   528.6
   615.5
   638.8
    97.9
   475.1
   228.5
   568.7
   568.7
   556.2
   185.9
   365.4
   605.1
   693.2
   556.9
   618.3
   185.9
     0.0
     0.0
   466.5
   499.2
   433.8
   548.3
   216.7
   230.1
   569.4
   548.9
   589.9
   183.5
   215.1
   121.6
   552.1
   536.1
   568.2
   183.5
   121.6
   252.9
   540.2
   522.3
   558.1
   116.6
   112.7
   239.4
   350.2
   424.7
   275.7
    97.9
   193.9
     0.0
   404.7
   383.0
   366.9
   455.0
   600.4
   505.5
   571.8
   748.0
   722.9
   803.9
   722.9
    69.1
   265.5
   252.9
   478.5
   426.8
   548.9
   463.4
   523.8
   571.8
   183.5
   726.2
   621.1
   831.3
   488.7
   192.2
   321.5
   589.7
   569.6
   608.1
   622.4
   251.0
   321.5
   139.5
   492.9
   548.7
   437.1
   266.2
   250.0
   600.5
   615.1
   586.0
   632.1
   650.6
   210.1
   233.2
   131.3
   496.2
   538.4
   453.9
   251.0
   139.5
    54.8
   410.6
   384.0
   437.1
   251.0
   600.5
   488.7
   718.7
   796.6
   640.9
   113.1
   131.3
     0.0
   453.3
   453.3
   312.5
   233.2
   210.1
   559.2
   579.9
   538.4
   266.2
   230.8
   141.0
   512.2
   512.2
   600.2
   600.7
   228.5
   722.6
   609.9
   618.6
   869.1
   287.0
   299.1
   146.5
   614.4
   614.4
   422.5
   131.9
   264.6
   571.9
   569.9
   528.9
   632.7
   600.2
   475.1
   488.7
   752.0
   722.7
   785.0
   722.7
   287.0
   146.5
   239.4
   567.3
   603.4
   531.2
    96.3
   216.7
   358.8
   484.6
   425.6
   543.5
   102.2
   407.4
   333.2
   623.1
   623.1
   551.8
   191.9
   144.9
   573.1
   538.8
   607.4
   383.5
   144.9
   229.8
   523.0
   459.6
   586.3
   600.1
   210.1
   241.1
   590.8
   600.6
   563.2
   629.7
   266.0
   215.3
    83.6
   519.9
   556.1
   483.7
   407.4
   247.4
   333.2
   605.2
   597.4
   623.1
   599.7
   600.2
   600.1
   241.1
   767.0
   628.2
   629.7
   868.9
   600.2
   216.7
   548.3
   702.8
   601.5
   589.9
   844.9
   600.4
   264.6
   428.3
   661.9
   644.1
   594.1
   723.0
   551.8
   548.3
   191.9
   728.1
   615.5
   840.7
   383.5
   551.8
   144.9
   679.9
   607.4
   752.4
   247.4
   383.5
   229.8
   590.6
   562.9
   586.3
   629.5
   600.3
   600.2
   548.3
   763.2
   722.8
   844.9
   722.8
   244.0
   301.1
   141.0
   541.9
   501.5
   582.4
   600.2
   215.3
   572.7
   675.3
   627.8
   722.7
   600.2
   407.4
   215.3
   663.3
   627.8
   633.3
   722.8
   537.6
   383.5
   247.4
   645.4
   629.5
   661.2
   380.3
   243.1
   600.7
   638.8
   587.8
   638.8
   719.2
   525.0
   244.0
   195.2
   615.3
   575.9
   654.7
   266.0
   572.7
   215.3
   599.4
   556.1
   642.6
   591.8
   265.5
   299.1
   615.8
   658.4
   564.4
   669.0
   350.7
   525.0
   195.2
   670.2
   670.2
     0.0
   217.8
     0.0
   430.7
   430.7
   600.5
   525.0
   600.5
   774.9
   826.9
   723.0
   208.2
   525.0
   178.6
   537.2
   622.9
   613.7
   447.7
   600.4
   208.2
   600.4
   621.1
   622.3
   619.8
   227.0
   185.9
   556.2
   586.3
   548.3
   618.3
   626.4
   350.7
   178.6
   525.0
   621.7
   670.2
   613.7
   594.5
     0.0
   178.6
   217.8
   464.3
   503.5
   425.2
   571.8
   505.5
   411.7
   764.1
   724.3
   803.9
   185.9
     0.0
   164.4
   511.9
   518.7
   514.4
   499.2
   556.2
   419.7
   208.2
   535.1
   492.3
   577.9
   600.4
   208.2
   505.5
   693.0
   629.3
   619.8
   802.5
   600.7
   600.2
   600.4
   779.0
   723.1
   869.1
   723.2
   600.4
   571.8
   523.8
   768.8
   722.9
   831.3
   722.9
   600.4
   556.2
   208.2
   676.5
   625.4
   577.9
   839.3
   591.8
   183.5
   265.5
   605.3
   602.8
   571.2
   658.4
   299.1
   265.5
   146.5
   564.4
   564.4
   266.2
   600.5
   230.8
   573.2
   602.5
   512.2
   653.8
   600.5
   600.5
   230.8
   602.1
   601.7
   602.5
   317.1
   556.2
   600.4
   746.5
   685.1
   839.3
   650.8
   600.2
   600.2
   475.1
   743.1
   722.7
   763.5
   600.5
   600.2
   488.7
   743.2
   796.6
   722.7
   722.7
   380.3
   600.7
   600.5
   781.5
   869.2
   721.7
   707.4
   266.2
   600.5
   600.5
   652.2
   653.8
   650.6
   422.5
   250.0
   131.9
   569.9
   569.9
   312.5
   264.6
   233.2
   584.0
   569.0
   579.9
   602.9
   600.2
   600.2
   600.5
   771.5
   722.7
   722.7
   869.1
   312.5
   600.1
   600.2
   755.8
   675.4
   869.0
   672.3
   597.1
   407.4
   600.2
   734.7
   759.6
   722.8
   722.7
   600.5
   600.5
   600.5
   857.7
   869.3
   846.1
   600.2
   600.5
   600.5
   869.1
   869.0
   869.3
   869.0
   600.3
   600.3
   551.8
   737.1
   722.8
   751.4
   422.5
   600.5
   250.0
   694.0
   632.1
   755.9
   600.5
   600.5
   422.5
   739.5
   755.9
   723.1
   317.1
   208.3
   227.0
   547.4
   509.4
   585.5
   591.8
   600.5
   600.3
   866.7
   865.6
   869.1
   865.6
   600.2
   315.0
   216.7
   615.9
   603.2
   628.4
   638.8
   600.2
   600.2
   216.7
   744.5
   601.5
   638.8
   868.9
   312.5
   600.2
   428.3
   709.9
   747.6
   672.3
   600.3
   548.3
   551.8
   786.2
   840.7
   722.8
   722.8
   600.3
   551.8
   383.5
   751.4
   752.4
   751.4
   750.4
   600.1
   600.2
   600.2
   795.8
   868.9
   722.6
   600.5
   600.5
   600.5
   869.3
   869.3
   600.5
   600.5
   299.1
   758.5
   625.4
   655.1
   869.2
   555.3
   247.4
   407.4
   592.9
   586.0
   599.7
   555.3
   537.6
   247.4
   739.0
   586.0
   661.2
   839.1
   600.3
   600.3
   600.3
   751.4
   751.4
   600.1
   600.2
   600.2
   722.7
   722.6
   722.7
   537.6
   600.3
   383.5
   750.9
   750.4
   751.4
   576.1
   572.7
   484.4
   817.9
   852.9
   782.8
   600.2
   484.4
   244.0
   656.5
   722.7
   650.7
   605.5
   576.1
   600.2
   572.7
   767.8
   852.9
   722.7
   722.7
   597.1
   600.2
   600.2
   795.0
   722.7
   867.3
   600.2
   600.2
   576.1
   790.2
   722.7
   857.7
   600.2
   576.1
   484.4
   722.7
   722.7
   722.7
   600.5
   600.2
   244.0
   651.0
   663.4
   605.5
   722.7
   600.3
   600.3
   593.0
   787.0
   751.4
   751.4
   866.1
   600.5
   244.0
   525.0
   718.2
   654.7
   663.4
   826.9
     0.0
   178.6
     0.0
   425.2
   425.2
   208.2
   600.5
   525.0
   652.9
   622.9
   723.0
   611.4
     0.0
   208.2
   178.6
   447.7
   447.7
   203.4
   208.2
     0.0
   488.4
   488.4
   600.7
   600.7
   600.4
   723.2
   723.2
   723.2
   600.5
   600.5
   600.5
   869.3
   869.3
   600.4
   600.4
   208.2
   623.9
   622.3
   625.4
    87.8
     0.0
     0.0
   221.0
   221.0
    93.8
    87.8
   185.9
   408.3
   460.6
   355.9
   600.4
   600.4
   505.5
   763.5
   722.9
   802.5
   722.9
   600.5
   299.1
   287.0
   631.1
   614.4
   655.1
   636.2
   600.4
   571.8
   600.4
   722.9
   722.9
   722.9
   722.9
   591.8
   299.1
   600.5
   758.4
   625.4
   669.0
   865.6
   600.4
   600.4
   600.4
   854.2
   854.2
   593.0
   600.4
   523.8
   722.9
   722.9
   722.9
   600.4
   600.4
   593.0
   794.8
   722.9
   866.7
   380.3
   600.7
   600.7
   707.8
   707.4
   708.3
   600.5
   600.5
   600.5
   857.7
   846.1
   869.3
   600.5
   600.5
   600.5
   869.2
   869.2
   380.3
   600.5
   287.0
   678.9
   636.2
   721.7
   600.3
   600.2
   593.0
   866.9
   865.6
   866.1
   869.0
   600.7
   600.2
   600.2
   794.5
   723.2
   869.0
   723.1
   600.2
   600.2
   600.2
   795.9
   869.0
   722.7
   600.4
   600.5
   422.5
   719.9
   708.2
   723.1
   723.0
   600.2
   600.2
   600.2
   794.2
   722.7
   722.7
   869.0
   600.2
   600.2
   600.2
   796.6
   869.0
   724.1
   600.4
   422.5
   264.6
   671.0
   644.1
   632.7
   723.0
   600.1
   600.1
   600.2
   862.5
   868.9
   856.0
   600.2
   600.2
   600.3
   722.7
   722.8
   722.7
   600.3
   600.2
   600.3
   722.7
   722.7
   722.7
   600.4
   600.4
   422.5
   715.6
   723.0
   708.2
   600.3
   600.4
   600.2
   781.5
   722.9
   722.9
   869.0
   600.2
   600.2
   600.2
   724.1
   724.1
   600.3
   600.3
   600.5
   869.1
   869.1
   869.1
   869.1
   600.2
   600.4
   428.3
   729.7
   747.6
   723.0
   722.9
   600.1
   600.2
   600.1
   862.5
   869.0
   856.0
   600.1
   600.1
   600.2
   856.0
   856.0
   600.1
   600.1
   600.1
   856.0
   856.0
   600.2
   600.2
   600.1
   789.3
   856.0
   722.7
   600.4
   600.4
   600.4
   767.5
   854.2
   722.9
   722.9
   600.4
   317.1
   600.4
   771.9
   869.2
   650.8
   681.8
   600.2
   593.0
   600.2
   794.2
   722.7
   865.6
   593.0
   600.3
   537.6
   751.4
   751.4
   751.4
   579.3
   537.6
   555.3
   843.9
   839.1
   848.7
   600.3
   600.2
   600.3
   772.9
   722.7
   722.7
   869.0
   203.4
   600.5
   208.2
   555.6
   617.5
   611.4
   488.4
   579.3
   593.0
   537.6
   856.8
   856.8
   599.9
   579.3
   591.0
   861.3
   858.7
   859.5
   865.3
   600.5
   576.1
   600.2
   765.5
   854.3
   722.7
   722.7
   591.0
   579.3
   555.3
   854.1
   848.7
   859.5
   597.0
   600.3
   593.0
   866.2
   865.1
   866.1
   867.8
   597.1
   600.2
   598.7
   867.9
   868.6
   867.3
   867.6
   600.3
   600.3
   600.3
   869.1
   869.1
   869.0
   869.1
   599.9
   597.0
   579.3
   858.7
   858.7
   600.4
   600.6
   600.4
   778.2
   723.1
   723.1
   869.2
   591.8
   600.3
   593.0
   865.5
   864.8
   866.1
   865.6
   600.5
   600.2
   576.1
   861.7
   854.3
   857.7
   869.2
   600.6
   600.2
   600.2
   795.8
   722.7
   869.0
   600.5
   600.5
   600.5
   755.2
   827.4
   723.0
   723.0
   600.5
   600.5
   600.2
   778.6
   723.0
   869.0
   723.0
   203.4
   600.5
   600.5
   620.2
   617.5
   622.9
     0.0
   203.4
     0.0
   521.7
   521.7
   600.5
   600.5
   600.2
   796.0
   869.0
   723.0
   248.1
   600.5
   203.4
   591.4
   634.3
   622.9
   553.2
   317.1
   227.0
   556.2
   626.6
   685.1
   626.4
   585.5
    93.8
     0.0
     0.0
   428.8
   428.8
   100.9
    93.8
   227.0
   414.7
   435.2
   394.3
   600.4
   600.4
   600.4
   722.9
   722.9
   600.4
   600.4
   600.4
   861.7
   854.2
   869.2
   600.6
   600.7
   600.7
   723.1
   723.1
   723.1
   600.2
   600.2
   600.5
   869.0
   869.0
   869.1
   869.0
   600.4
   600.6
   600.7
   723.1
   723.2
   723.1
   723.1
   600.2
   600.4
   593.0
   780.6
   722.7
   866.7
   722.7
   600.2
   600.4
   600.4
   859.6
   854.2
   854.2
   869.1
   600.2
   600.2
   600.2
   869.0
   869.0
   600.6
   600.7
   600.6
   796.2
   869.3
   723.1
   600.3
   600.5
   600.5
   796.0
   723.0
   869.1
   600.2
   600.2
   600.2
   869.0
   869.0
   600.6
   600.6
   600.5
   723.0
   723.0
   723.0
   600.3
   600.5
   600.4
   869.2
   869.1
   869.1
   869.3
   600.2
   600.4
   600.2
   796.6
   869.1
   724.1
   600.2
   600.2
   600.4
   780.7
   722.7
   869.1
   722.7
   600.3
   600.4
   600.3
   775.4
   722.9
   722.9
   869.0
   600.6
   600.4
   600.5
   847.7
   869.2
   869.1
   773.8
   600.5
   600.5
   600.4
   796.1
   723.0
   869.1
   600.3
   600.4
   600.4
   796.0
   869.1
   722.9
   600.2
   600.2
   600.2
   724.1
   724.1
   600.3
   600.3
   600.2
   776.2
   722.7
   722.7
   869.1
   600.2
   600.5
   600.2
   869.0
   869.0
   869.0
   600.1
   600.2
   600.3
   722.7
   722.7
   722.7
   722.6
   600.2
   600.3
   600.2
   795.9
   869.0
   722.7
   600.3
   600.3
   600.4
   782.6
   722.9
   722.9
   869.1
   600.4
   600.4
   600.4
   722.9
   722.9
   600.2
   600.4
   600.2
   796.6
   869.0
   724.1
   600.3
   600.3
   600.2
   773.7
   722.7
   722.7
   869.0
   600.1
   600.2
   600.1
   765.3
   856.0
   722.7
   722.7
   600.2
   600.2
   600.1
   795.8
   722.7
   868.9
   600.1
   600.3
   600.3
   781.6
   869.0
   722.6
   722.6
   600.2
   600.2
   600.2
   869.0
   869.0
   869.1
   600.3
   600.3
   600.3
   795.3
   751.4
   751.4
   869.1
   597.0
   593.0
   579.3
   860.9
   856.8
   865.1
   600.3
   600.3
   600.3
   869.1
   869.1
   869.1
   600.3
   600.4
   600.4
   869.1
   869.1
   869.1
   869.2
   600.2
   600.2
   600.2
   869.0
   869.0
   869.1
   598.7
   600.2
   600.2
   868.8
   869.1
   868.6
   600.5
   600.2
   600.5
   869.1
   869.1
   869.2
   869.2
   600.3
   597.0
   599.9
   868.3
   867.6
   868.9
   598.7
   600.2
   600.3
   868.9
   869.1
   868.7
   600.5
   600.5
   600.5
   840.3
   840.3
   600.3
   600.3
   600.3
   869.1
   869.1
   600.5
   600.2
   600.2
   869.1
   869.1
   869.1
   869.2
   600.5
   600.5
   600.5
   854.8
   869.2
   840.3
   600.6
   600.5
   600.5
   869.2
   869.2
   600.6
   600.5
   600.5
   773.8
   773.8
   600.5
   600.2
   600.5
   869.2
   869.2
   869.2
   869.2
   134.1
   203.4
     0.0
   484.8
   447.9
   521.7
   600.3
   600.5
   248.1
   737.4
   869.1
   634.3
   639.4
   600.3
   600.5
   600.5
   781.9
   869.1
   723.0
   723.0
   134.1
   248.1
   203.4
   500.5
   447.9
   553.2
     0.0
   134.1
     0.0
   431.2
   431.2
   265.9
   134.1
     0.0
   447.6
   464.0
   431.2
   600.3
   600.3
   600.3
   869.0
   869.0
   600.3
   600.2
   600.3
   869.0
   869.0
   869.0
   323.6
   208.3
   317.1
   584.6
   537.6
   631.6
   105.5
   100.9
   226.0
   456.0
   462.4
   449.6
   100.9
     0.0
     0.0
   474.4
   474.4
   323.6
   317.1
   600.4
   659.1
   684.2
   631.6
   682.8
   323.6
   349.9
   226.0
   594.9
   557.9
   631.9
   600.4
   600.2
   600.4
   869.1
   869.2
   869.1
   600.6
   600.4
   600.5
   744.9
   723.0
   723.0
   796.2
   600.3
   600.2
   600.3
   869.1
   869.1
   869.0
   600.4
   600.4
   600.6
   723.1
   723.1
   723.1
   600.4
   600.4
   600.4
   869.1
   869.1
   600.3
   600.3
   600.3
   722.8
   722.8
   600.6
   600.4
   600.4
   832.7
   796.2
   869.2
   600.3
   600.2
   600.2
   794.0
   869.1
   722.7
   722.7
   600.6
   600.4
   600.4
   869.2
   869.3
   869.2
   869.2
   600.2
   600.5
   600.5
   869.1
   869.0
   869.3
   869.0
   600.4
   600.4
   600.4
   869.2
   869.2
   600.2
   600.2
   600.2
   796.5
   724.1
   869.0
   600.2
   600.4
   600.4
   795.9
   869.0
   722.9
   600.3
   600.2
   600.1
   868.9
   868.9
   868.9
   869.0
   600.3
   600.3
   600.3
   846.4
   869.1
   823.7
   600.3
   600.5
   600.3
   869.2
   869.1
   869.3
   869.1
   600.3
   600.5
   600.3
   869.1
   869.1
   869.1
   869.1
   600.4
   600.4
   600.4
   846.8
   833.1
   869.2
   833.1
   600.3
   600.3
   600.3
   724.7
   722.8
   722.8
   728.8
   600.4