# vtk DataFile Version 3.0
Landscape
ASCII
DATASET UNSTRUCTURED_GRID
POINTS      21968 float
           0.000           0.000           0.000
        1600.000           0.000           0.000
           0.000        1600.000           0.000
         533.333         533.333           0.000
        1820.535        1836.129         161.874
        1600.000           0.000           0.000
        3200.000           0.000           0.000
        2206.845         612.043         363.468
        1760.928        1339.858         363.468
        4436.497        1560.645         206.005
        3200.000           0.000           0.000
        4800.000           0.000           0.000
        4145.499         520.215         351.525
        4516.975        1215.124         351.525
        6234.052        1737.813         105.567
        4800.000           0.000           0.000
        6400.000           0.000           0.000
        5811.350         579.271         383.470
        5792.471        1202.696         383.470
        8231.839        1585.959         182.645
        6400.000           0.000           0.000
        8000.000           0.000           0.000
        7989.504        1202.710         377.231
        7805.224        1216.607         408.503
        8173.783        1188.813         345.959
        8231.839        1585.959         182.645
        8000.000           0.000           0.000
        9600.000           0.000           0.000
        8610.613         528.653         345.959
        8173.783        1188.813         345.959
       10506.534         877.165         100.636
       11192.297        1979.624         239.554
        9502.865        3552.908         500.583
        9609.354        3427.543         565.051
        9685.641        3382.697         596.465
        9533.067        3472.389         533.637
       11192.297        1979.624         239.554
       11200.000           0.000           0.000
       12800.000           0.000           0.000
       11337.481        1620.107         406.278
       11193.710        1616.391         388.017
       11481.252        1623.822         424.539
       14535.388        1860.001         133.130
       12800.000           0.000           0.000
       14400.001           0.000           0.000
       14280.535        1330.205         382.652
       14066.204        1357.126         407.519
       14494.865        1303.283         357.784
       14535.388        1860.001         133.130
       14400.001           0.000           0.000
       16000.000           0.000           0.000
       14978.463         620.000         357.784
       14494.865        1303.283         357.784
       17224.315        1919.917         232.780
       16000.000           0.000           0.000
       17600.000           0.000           0.000
       16941.438         639.972         384.978
       17296.535        1550.842         384.978
       18961.790        1751.968          71.028
       17600.000           0.000           0.000
       19200.000           0.000           0.000
       18587.263         583.989         368.223
       18462.037        1109.027         368.223
        4436.497        1560.645         206.005
        1820.535        1836.129         161.874
        3200.000           0.000           0.000
        3152.344        1132.258         519.016
        3380.417        1671.859         519.016
       23731.335        1792.943         187.968
       22400.000           0.000           0.000
       24000.001           0.000           0.000
       23377.112         597.648         365.647
       23796.373        1358.912         365.647
       25712.931        1511.197         107.007
       24000.001           0.000           0.000
       25599.999           0.000           0.000
       25104.310         503.732         386.077
       25187.232        1047.411         386.077
       25712.931        1511.197         107.007
       27200.000           0.000           0.000
       27507.238        1603.221         188.166
       26806.723        1038.139         392.251
       26182.422        1034.088         374.215
       27432.177        1211.539         350.740
       26871.405        1570.611         442.053
       27507.238        1603.221         188.166
       27200.000           0.000           0.000
       28800.001           0.000           0.000
       27835.746         534.407         350.740
       27432.177        1211.539         350.740
       30065.602        1613.570         303.966
       28800.001           0.000           0.000
       30400.000           0.000           0.000
       30006.979        1433.742         391.166
       29913.903        1420.162         405.711
       30100.056        1447.322         376.622
       31040.554         771.051         135.095
       30065.602        1613.570         303.966
       30400.000           0.000           0.000
       30470.430         988.965         320.746
       30840.804         530.607         264.871
       30100.056        1447.322         376.622
       32676.537         889.541          60.502
       33371.579        1994.991         143.707
       33224.678        2857.386         224.724
       33090.931        1913.973         436.573
       33083.644        2351.068         436.573
       34548.701        1811.800         314.392
       34459.486        2336.808         265.002
       33371.579        1994.991         143.707
       34126.589        2047.867         400.421
       34514.447        2013.378         400.421
        6234.052        1737.813         105.567
        6043.012        3262.445         215.973
        5160.666        3300.186         479.950
        5812.577        2766.815         510.430
        5196.666        3298.646         510.430
       37099.539        1414.823         243.855
       35200.000           0.000           0.000
       36800.001           0.000           0.000
       36366.513         471.608         346.927
       37048.135        1172.023         346.927
       37099.539        1414.823         243.855
       36800.001           0.000           0.000
       38399.999           0.000           0.000
       37192.881        1163.910         366.786
       37048.135        1172.023         346.927
       37337.628        1155.797         386.645
       39191.316         917.871          62.479
       38399.999           0.000           0.000
       40000.000           0.000           0.000
       39197.105         305.957         268.905
       38857.419         530.575         268.905
       40125.312        1643.514         114.909
       41599.998           0.000           0.000
       41840.942        1855.796         219.204
       41188.751        1166.437         404.302
       40575.274        1142.039         383.867
       41790.357        1466.182         378.424
       41268.421        1784.956         449.068
       41840.942        1855.796         219.204
       41599.998           0.000           0.000
       43200.002           0.000           0.000
       42213.647         618.599         378.424
       41790.357        1466.182         378.424
       43418.644        1867.336         132.108
       43200.002           0.000           0.000
       44800.000           0.000           0.000
       43806.215         622.445         360.910
       43352.348        1301.132         360.910
       34548.701        1811.800         314.392
       37099.539        1414.823         243.855
       36841.038        3085.085         248.607
       36163.093        2103.903         573.378
       35261.489        1700.872         592.582
       36965.019        2284.003         537.243
       35220.004        2184.677         596.586
       48116.282        1628.322         139.162
       49975.028        1831.460         323.528
       48146.017        3166.706         299.580
       49385.863        2083.753         553.422
       49551.309        1785.152         493.409
       49220.418        2382.353         613.435
       10506.534         877.165         100.636
        9502.865        3552.908         500.583
        8231.839        1585.959         182.645
        9413.746        2005.344         511.755
        9414.257        3415.785         563.259
        8986.515        1350.802         471.592
        9533.067        3472.389         533.637
       52954.322        1538.422         229.460
       52800.002           0.000           0.000
       54400.001           0.000           0.000
       53384.775         512.807         354.427
       52924.042        1236.564         354.427
       45576.245        1448.210         114.430
       46228.872        2830.415         238.022
       43557.179        3128.631         209.626
       44628.737        2785.951         526.926
       45081.215        2958.517         554.047
       44176.258        2613.386         499.805
       59004.449        1641.677         195.227
       57600.002           0.000           0.000
       59200.001           0.000           0.000
       58601.484         547.226         357.257
       59051.452        1247.076         357.257
       38196.713        1837.356         134.564
       37099.539        1414.823         243.855
       38399.999           0.000           0.000
       37898.751        1084.060         383.717
       38257.876        1284.553         358.249
       37337.628        1155.797         386.645
       37506.883        1571.695         419.214
       60471.826        1510.939         221.407
       59200.001           0.000           0.000
       60799.999           0.000           0.000
       60157.275         503.646         353.901
       60540.161        1196.318         353.901
       25712.931        1511.197         107.007
       25600.029        2863.835         230.582
       23731.335        1792.943         187.968
       24638.460        2073.286         489.588
[...]
POINT_DATA      21968
SCALARS height float 1
LOOKUP_TABLE default
     0.0
     0.0
     0.0
     0.0
   161.9
     0.0
     0.0
   363.5
   363.5
   206.0
     0.0
     0.0
   351.5
   351.5
   105.6
     0.0
     0.0
   383.5
   383.5
   182.6
     0.0
     0.0
   377.2
   408.5
   346.0
   182.6
     0.0
     0.0
   346.0
   346.0
   100.6
   239.6
   500.6
   565.1
   596.5
   533.6
   239.6
     0.0
     0.0
   406.3
   388.0
   424.5
   133.1
     0.0
     0.0
   382.7
   407.5
   357.8
   133.1
     0.0
     0.0
   357.8
   357.8
   232.8
     0.0
     0.0
   385.0
   385.0
    71.0
     0.0
     0.0
   368.2
   368.2
   206.0
   161.9
     0.0
   519.0
   519.0
   188.0
     0.0
     0.0
   365.6
   365.6
   107.0
     0.0
     0.0
   386.1
   386.1
   107.0
     0.0
   188.2
   392.3
   374.2
   350.7
   442.1
   188.2
     0.0
     0.0
   350.7
   350.7
   304.0
     0.0
     0.0
   391.2
   405.7
   376.6
   135.1
   304.0
     0.0
   320.7
   264.9
   376.6
    60.5
   143.7
   224.7
   436.6
   436.6
   314.4
   265.0
   143.7
   400.4
   400.4
   105.6
   216.0
   480.0
   510.4
   510.4
   243.9
     0.0
     0.0
   346.9
   346.9
   243.9
     0.0
     0.0
   366.8
   346.9
   386.6
    62.5
     0.0
     0.0
   268.9
   268.9
   114.9
     0.0
   219.2
   404.3
   383.9
   378.4
   449.1
   219.2
     0.0
     0.0
   378.4
   378.4
   132.1
     0.0
     0.0
   360.9
   360.9
   314.4
   243.9
   248.6
   573.4
   592.6
   537.2
   596.6
   139.2
   323.5
   299.6
   553.4
   493.4
   613.4
   100.6
   500.6
   182.6
   511.8
   563.3
   471.6
   533.6
   229.5
     0.0
     0.0
   354.4
   354.4
   114.4
   238.0
   209.6
   526.9
   554.0
   499.8
   195.2
     0.0
     0.0
   357.3
   357.3
   134.6
   243.9
     0.0
   383.7
   358.2
   386.6
   419.2
   221.4
     0.0
     0.0
   353.9
   353.9
   107.0
   230.6
   188.0
   489.6
   522.3
   456.8
   139.2
   175.5
   323.5
   439.8
   493.4
   386.2
   160.1
     0.0
     0.0
   291.1
   291.1
   108.4
   236.0
   500.4
   584.6
   622.5
   546.6
   133.1
   239.6
     0.0
   466.0
   407.5
   424.5
   540.2
   145.2
     0.0
     0.0
   352.7
   326.8
   378.6
   199.9
     0.0
     0.0
   380.9
   404.4
   357.4
    99.1
   330.0
   199.9
   387.4
   387.4
   221.4
   195.2
     0.0
   421.8
   357.3
   486.3
   124.5
   253.1
   221.4
   511.4
   555.0
   467.9
    71.0
   229.3
   149.7
   479.8
   435.8
   523.8
   113.6
   238.8
   229.3
   470.5
   519.5
   421.5
   232.8
   133.1
     0.0
   517.1
   517.1
   100.6
   182.6
     0.0
   471.6
   471.6
   161.9
     0.0
     0.0
   418.1
   363.5
   472.8
   229.3
     0.0
     0.0
   396.4
   419.5
   373.4
   114.0
     0.0
   113.6
   274.8
   274.8
   100.1
     0.0
     0.0
   373.0
   373.0
   100.1
     0.0
   229.5
   399.8
   382.2
   354.4
   450.0
   105.6
   206.0
     0.0
   397.2
   383.5
   351.5
   446.2
   100.1
   229.5
   220.4
   496.3
   542.6
   450.0
   145.2
     0.0
     0.0
   326.8
   326.8
   200.4
   500.6
   239.6
   569.8
   509.7
   571.2
   600.5
   195.7
   229.5
     0.0
   471.5
   392.1
   550.9
   304.0
   188.2
     0.0
   481.1
   405.7
   556.4
   500.6
   500.6
   200.4
   604.8
   600.5
   609.2
   124.5
     0.0
     0.0
   392.9
   392.9
   315.8
     0.0
     0.0
   404.3
   421.9
   386.7
   500.7
   188.0
   230.6
   560.4
   592.0
   522.3
   598.5
   282.6
   229.3
   238.8
   562.3
   587.3
   519.5
   578.1
   262.2
   200.4
   232.8
   552.9
   549.2
   532.3
   567.5
    71.0
   149.7
   262.2
   461.1
   461.1
    60.5
   224.7
   500.2
   506.8
   605.6
   521.2
   436.6
   114.4
     0.0
   273.4
   364.0
   337.1
   346.9
   411.4
   273.4
     0.0
     0.0
   346.9
   346.9
   248.6
   243.9
   134.6
   478.2
   419.2
   537.2
   114.9
    62.5
     0.0
   325.9
   325.9
   114.9
   134.6
    62.5
   382.4
   438.8
   325.9
   500.2
   500.2
   188.2
   671.4
   531.6
   593.2
   769.0
   132.1
   219.2
     0.0
   405.0
   360.9
   449.2
   195.7
     0.0
     0.0
   369.3
   392.1
   346.5
   195.7
     0.0
     0.0
   346.5
   346.5
   139.2
     0.0
   175.5
   386.2
   386.2
   500.3
   230.6
   500.2
   636.7
   590.1
   564.2
   754.6
   236.0
     0.0
     0.0
   400.4
   379.8
   421.1
   108.3
   296.2
   500.4
   572.9
   615.8
   530.1
   500.0
   229.5
   195.7
   559.8
   539.5
   550.9
   587.3
   114.4
   209.6
   132.1
   475.5
   451.2
   499.8
   195.2
   195.7
     0.0
   548.2
   548.2
   145.2
   296.2
     0.0
   450.7
   402.8
   498.6
   199.9
   145.2
     0.0
   451.7
   404.4
   378.6
   522.0
   124.5
   221.4
     0.0
   410.8
   392.9
   353.9
   467.9
   139.2
   238.0
   273.4
   497.5
   537.1
   451.7
   502.4
   500.2
   238.0
   299.6
   580.4
   604.3
   562.0
   596.7
   220.4
   299.6
   323.5
   582.0
   535.4
   613.4
   590.0
   108.4
   500.4
   160.1
   494.3
   528.6
   546.6
   444.8
   108.3
   236.0
     0.0
   458.7
   421.1
   496.3
   500.6
   216.0
   182.6
   567.0
   535.5
   563.3
   616.8
   206.2
     0.0
     0.0
   400.8
   431.3
   370.2
   206.2
     0.0
     0.0
   455.7
   370.2
   541.2
   247.8
   145.2
   199.9
   545.5
   522.0
   569.0
   330.0
   206.2
   174.9
   541.8
   572.6
   493.5
   578.8
   247.8
   500.4
   296.2
   601.2
   576.0
   615.8
   622.9
     0.0
   206.2
     0.0
   480.8
   541.2
   420.5
   105.6
   480.0
   206.0
   502.8
   559.5
   446.2
   500.6
   500.6
   239.6
   553.1
   509.7
   596.5
   341.4
   161.9
   206.0
   533.6
   519.0
   548.2
     0.0
     0.0
   161.9
   489.8
   472.8
   506.9
   185.5
   161.9
   341.4
   528.7
   511.6
   545.8
   480.0
   341.4
   206.0
   587.5
   559.5
   548.2
   651.2
   499.6
   341.4
   480.0
   653.9
   656.7
   651.2
   500.7
   238.8
   188.0
   564.7
   520.0
   592.0
   614.0
   107.0
   500.2
   230.6
   537.0
   564.2
   509.9
   499.6
   185.5
   341.4
   586.7
   656.7
   545.8
   599.9
   185.5
     0.0
     0.0
   464.4
   495.6
   433.3
   500.0
   220.4
   229.5
   547.6
   539.5
   542.6
   560.4
   200.4
   239.6
   133.1
   555.7
   540.2
   571.2
   200.4
   133.1
   232.8
   533.2
   517.1
   549.2
   114.0
   113.6
   229.3
   348.1
   421.5
   274.8
   107.0
   188.0
     0.0
   406.3
   386.1
   365.6
   456.8
   500.4
   500.6
   500.6
   678.3
   622.9
   769.4
   622.9
    71.0
   262.2
   232.8
   469.2
   422.3
   532.3
   461.1
   500.3
   500.6
   200.4
   586.3
   553.8
   609.2
   622.8
   500.2
   188.2
   304.0
   574.4
   556.4
   593.2
   602.4
   135.1
   500.2
   304.0
   565.6
   602.4
   528.8
   265.0
   248.6
   500.5
   601.0
   577.1
   610.4
   629.8
   209.6
   219.2
   132.1
   488.2
   527.2
   449.2
    60.5
   500.2
   135.1
   453.4
   528.8
   521.2
   385.8
   500.5
   500.2
   224.7
   671.5
   769.1
   605.6
   578.1
   114.4
   132.1
     0.0
   451.2
   451.2
   304.0
   219.2
   209.6
   544.1
   561.1
   527.2
   265.0
   224.7
   143.7
   507.2
   507.2
   500.3
   500.7
   230.6
   663.8
   590.1
   598.5
   769.2
   282.6
   292.3
   149.7
   600.4
   600.4
   390.9
   134.6
   261.3
   561.7
   559.7
   523.8
   614.1
   500.2
   500.2
   500.2
   769.0
   769.0
   282.6
   149.7
   229.3
   555.5
   587.3
   523.8
   100.1
   220.4
   323.5
   476.9
   418.3
   535.4
   160.1
   500.4
   315.8
   559.4
   590.1
   528.6
   500.3
   195.7
   195.2
   568.2
   557.0
   548.2
   611.5
   500.3
   195.2
   221.4
   524.7
   528.1
   486.3
   565.7
   500.1
   209.6
   238.0
   576.1
   579.9
   554.0
   606.6
   108.3
   500.4
   236.0
   537.4
   591.4
   496.3
   530.1
   500.4
   253.1
   315.8
   587.8
   589.5
   590.1
   584.7
   500.2
   500.1
   238.0
   695.6
   604.3
   606.6
   769.0
   500.2
   220.4
   500.0
   587.2
   583.0
   560.4
   622.5
   500.4
   261.3
   397.9
   607.5
   617.3
   580.0
   622.9
   500.3
   500.0
   195.7
   590.8
   557.0
   587.3
   622.5
   500.3
   500.3
   195.2
   576.7
   528.1
   611.5
   622.8
   253.1
   500.3
   221.4
   578.3
   555.0
   565.7
   613.5
   500.3
   500.2
   500.0
   622.6
   622.5
   622.5
   622.8
   247.8
   296.2
   145.2
   537.3
   498.6
   576.0
   500.2
   236.0
   500.2
   594.8
   613.2
   576.4
   500.2
   500.4
   236.0
   619.1
   613.2
   622.5
   622.7
   500.3
   500.3
   253.1
   627.8
   613.5
   642.1
   363.5
   238.8
   500.7
   617.6
   574.1
   614.0
   682.7
   500.5
   247.8
   199.9
   585.3
   545.5
   569.0
   636.1
   500.4
   500.2
   236.0
   597.5
   591.4
   576.4
   622.9
   500.3
   262.2
   292.3
   600.6
   633.1
   557.2
   641.1
   330.0
   500.5
   199.9
   593.0
   545.5
   640.4
     0.0
   206.2
     0.0
   420.5
   420.5
   500.5
   500.5
   500.5
   769.3
   769.3
   206.9
   500.5
   174.9
   527.4
   604.6
   595.3
   444.8
   500.4
   216.0
   500.4
   602.0
   601.2
   602.7
   222.6
   185.5
   499.6
   572.5
   539.2
   599.9
   604.7
   330.0
   174.9
   500.5
   601.1
   640.4
   595.3
   578.8
     0.0
   174.9
   206.2
   457.7
   493.5
   421.8
   500.6
   500.6
   500.6
   769.4
   769.4
   185.5
     0.0
   161.9
   505.7
   511.6
   506.9
   495.6
   499.6
   480.0
   216.0
   538.6
   510.4
   566.7
   500.4
   216.0
   500.6
   662.0
   616.8
   602.7
   769.2
   500.7
   500.2
   500.4
   679.0
   623.1
   769.0
   623.2
   500.4
   500.6
   500.3
   622.8
   622.9
   622.8
   622.9
   500.4
   499.6
   216.0
   657.6
   607.9
   566.7
   769.3
   500.3
   200.4
   262.2
   593.8
   591.0
   567.5
   633.1
   292.3
   262.2
   149.7
   557.2
   557.2
   265.0
   500.5
   224.7
   562.9
   579.2
   507.2
   631.8
   500.5
   500.5
   224.7
   578.7
   579.2
   578.1
   306.6
   499.6
   500.4
   688.1
   655.1
   769.3
   622.2
   500.2
   500.3
   500.2
   754.6
   754.6
   500.5
   500.2
   500.2
   695.9
   769.1
   622.7
   363.5
   500.7
   500.5
   715.7
   769.3
   684.8
   672.8
   265.0
   500.5
   500.5
   630.8
   631.8
   629.8
   390.9
   248.6
   134.6
   559.7
   559.7
   304.0
   261.3
   219.2
   569.2
   554.9
   561.1
   590.4
   500.2
   500.2
   500.5
   671.5
   622.7
   622.7
   769.1
   304.0
   500.1
   500.2
   691.0
   645.5
   769.0
   642.8
   500.4
   500.4
   500.2
   622.8
   622.9
   622.7
   622.7
   500.5
   500.5
   500.5
   757.7
   769.3
   746.1
   500.2
   500.5
   500.5
   769.1
   769.0
   769.3
   769.0
   500.3
   500.3
   500.3
   622.8
   622.8
   390.9
   500.5
   248.6
   658.1
   610.4
   705.8
   500.5
   500.5
   390.9
   664.4
   705.8
   623.0
   306.6
   207.0
   222.6
   538.2
   504.7
   571.8
   500.3
   500.5
   500.3
   769.1
   769.0
   769.1
   769.1
   500.2
   299.6
   220.4
   597.9
   590.0
   596.7
   618.3
   500.2
   500.2
   220.4
   680.0
   583.0
   618.3
   769.0
   304.0
   500.2
   397.9
   671.7
   700.7
   642.8
   500.3
   500.0
   500.3
   622.6
   622.5
   622.5
   622.8
   500.3
   500.3
   500.3
   622.8
   622.8
   622.8
   500.1
   500.2
   500.2
   695.8
   769.0
   622.6
   500.5
   500.5
   500.5
   769.2
   769.2
   500.5
   500.5
   292.3
   688.6
   600.4
   628.2
   769.2
   500.4
   253.1
   500.4
   579.0
   573.2
   584.7
   500.4
   500.3
   253.1
   687.8
   573.2
   642.1
   769.1
   500.3
   500.3
   500.3
   657.1
   657.1
   500.1
   500.2
   500.2
   622.7
   622.6
   622.7
   500.3
   500.3
   500.3
   640.0
   622.8
   657.1
   500.4
   500.2
   500.4
   695.9
   769.0
   622.9
   500.2
   500.4
   247.8
   604.7
   622.7
   622.9
   575.9
   500.4
   500.2
   500.2
   695.9
   769.0
   622.7
   500.4
   500.2
   500.2
   695.9
   622.7
   769.1
   500.2
   500.2
   500.4
   695.9
   622.7
   769.1
   500.2
   500.4
   500.4
   622.7
   622.7
   622.7
   500.5
   500.2
   247.8
   604.8
   641.6
   575.9
   622.7
   500.3
   500.3
   500.3
   706.0
   657.1
   657.1
   769.2
   500.5
   247.8
   500.5
   691.3
   636.1
   641.6
   769.3
     0.0
   174.9
     0.0
   421.8
   421.8
   206.9
   500.5
   500.5
   593.1
   604.6
   581.7
     0.0
   206.9
   174.9
   444.8
   444.8
   199.8
   206.9
     0.0
   485.1
   485.1
   500.7
   500.7
   500.4
   623.2
   623.2
   623.2
   500.5
   500.5
   500.5
   769.4
   769.4
   500.4
   500.4
   216.0
   604.6
   601.2
   607.9
    88.5
     0.0
     0.0
   221.4
   221.4
    94.0
    88.5
   185.5
   407.0
   457.5
   356.4
   500.4
   500.4
   500.6
   670.0
   622.9
   769.2
   622.9
   500.5
   292.3
   282.6
   611.6
   600.4
   628.2
   611.8
   500.4
   500.6
   500.4
   622.9
   622.9
   622.9
   622.9
   500.3
   292.3
   500.5
   692.0
   600.4
   641.1
   769.0
   500.4
   500.4
   500.4
   769.2
   769.2
   500.3
   500.4
   500.3
   622.9
   622.9
   622.9
   500.4
   500.4
   500.3
   696.0
   622.9
   769.2
   363.5
   500.7
   500.7
   648.0
   672.8
   623.2
   500.5
   500.5
   500.5
   757.7
   746.1
   769.2
   500.5
   500.5
   500.5
   769.2
   769.2
   363.5
   500.5
   282.6
   648.3
   611.8
   684.8
   500.3
   500.2
   500.3
   769.1
   769.1
   769.1
   769.0
   500.7
   500.3
   500.2
   694.5
   623.2
   769.0
   623.1
   500.2
   500.3
   500.2
   695.9
   769.0
   622.7
   500.4
   500.5
   390.9
   634.7
   666.3
   623.0
   623.0
   500.2
   500.2
   500.2
   694.2
   622.7
   622.7
   769.0
   500.2
   500.2
   500.2
   696.7
   769.0
   624.4
   500.4
   390.9
   261.3
   618.0
   617.3
   614.1
   622.9
   500.1
   500.1
   500.2
   769.0
   769.0
   768.9
   500.2
   500.2
   500.3
   622.7
   622.8
   622.7
   500.3
   500.2
   500.3
   622.7
   622.7
   622.7
   500.4
   500.4
   390.9
   644.6
   622.9
   666.3
   500.3
   500.4
   500.2
   681.5
   622.9
   622.9
   769.1
   500.2
   500.2
   500.2
   624.4
   624.4
   500.3
   500.3
   500.5
   769.1
   769.1
   769.1
   769.2
   500.2
   500.4
   397.9
   645.8
   700.7
   622.9
   622.9
   500.1
   500.2
   500.1
   769.0
   769.0
   769.0
   500.1
   500.1
   500.2
   768.9
   768.9
   500.1
   500.1
   500.1
   768.9
   768.9
   500.2
   500.2
   500.1
   695.8
   769.0
   622.7
   500.4
   500.4
   500.4
   697.9
   769.2
   622.9
   622.9
   500.4
   306.6
   500.4
   701.7
   769.2
   622.2
   650.2
   500.2
   500.3
   500.2
   695.9
   622.7
   769.1
   500.3
   500.3
   500.3
   657.1
   657.1
   657.1
   500.3
   500.3
   500.4
   769.1
   769.1
   769.1
   500.3
   500.2
   500.3
   672.9
   622.7
   622.7
   769.0
   199.8
   500.5
   206.9
   544.0
   588.2
   581.7
   485.1
   500.3
   500.3
   500.3
   769.1
   769.1
   500.3
   500.3
   500.4
   769.0
   769.0
   769.0
   769.1
   500.4
   500.4
   500.2
   673.6
   769.2
   622.7
   622.7
   500.4
   500.3
   500.4
   769.1
   769.1
   769.0
   500.3
   500.3
   500.3
   769.1
   769.1
   769.2
   769.1
   500.4
   500.2
   500.4
   769.1
   769.2
   769.1
   769.2
   500.3
   500.3
   500.3
   769.1
   769.1
   769.0
   769.1
   500.3
   500.3
   500.3
   769.0
   769.0
   500.4
   500.6
   500.4
   678.2
   623.1
   623.1
   769.2
   500.3
   500.3
   500.3
   769.1
   769.0
   769.1
   769.1
   500.4
   500.2
   500.4
   769.2
   769.2
   769.1
   769.2
   500.6
   500.2
   500.2
   695.8
   622.7
   769.0
   500.5
   500.5
   500.5
   655.2
   727.4
   623.0
   623.0
   500.5
   500.5
   500.2
   678.7
   623.0
   769.1
   623.0
   199.8
   500.5
   500.5
   593.4
   588.2
   598.5
     0.0
   199.8
     0.0
   514.2
   514.2
   500.5
   500.6
   500.2
   696.0
   769.0
   623.0
   244.8
   500.5
   199.8
   576.1
   609.2
   598.5
   543.7
   306.6
   222.6
   499.6
   606.6
   655.1
   604.7
   571.8
    94.0
     0.0
     0.0
   426.6
   426.6
   101.7
    94.0
   222.6
   413.3
   432.6
   393.9
   500.4
   500.4
   500.4
   622.9
   622.9
   500.4
   500.4
   500.4
   769.2
   769.2
   769.2
   500.6
   500.7
   500.7
   623.1
   623.1
   623.1
   500.2
   500.2
   500.5
   769.0
   769.0
   769.1
   769.0
   500.4
   500.6
   500.7
   623.1
   623.2
   623.1
   623.1
   500.2
   500.4
   500.3
   700.3
   622.7
   769.2
   622.7
   500.2
   500.4
   500.4
   769.1
   769.2
   769.2
   769.1
   500.2
   500.2
   500.2
   769.0
   769.0
   500.6
   500.7
   500.6
   696.2
   769.3
   623.1
   500.3
   500.5
   500.5
   696.1
   623.0
   769.2
   500.2
   500.2
   500.2
   769.0
   769.0
   500.6
   500.6
   500.5
   623.0
   623.0
   623.0
   500.3
   500.5
   500.4
   769.2
   769.1
   769.1
   769.3
   500.2
   500.4
   500.2
   696.7
   769.0
   624.4
   500.2
   500.2
   500.4
   680.7
   622.7
   769.1
   622.7
   500.3
   500.4
   500.3
   675.4
   622.9
   622.9
   769.0
   500.6
   500.4
   500.6
   747.7
   769.2
   769.1
   673.9
   500.5
   500.5
   500.4
   696.1
   623.0
   769.1
   500.3
   500.4
   500.4
   696.0
   769.1
   622.9
   500.2
   500.2
   500.2
   624.4
   624.4
   500.4
   500.3
   500.2
   676.2
   622.7
   622.7
   769.1
   500.2
   500.5
   500.2
   769.0
   769.0
   769.0
   500.1
   500.2
   500.3
   622.7
   622.7
   622.7
   622.6
   500.2
   500.3
   500.2
   695.9
   769.1
   622.7
   500.3
   500.3
   500.4
   682.6
   622.9
   622.9
   769.1
   500.4
   500.4
   500.4
   622.9
   622.9
   500.2
   500.4
   500.2
   696.7
   769.0
   624.4
   500.3
   500.3
   500.2
   673.7
   622.7
   622.7
   769.0
   500.1
   500.2
   500.1
   684.9
   768.9
   622.7
   622.7
   500.2
   500.2
   500.1
   695.8
   622.7
   768.9
   500.1
   500.3
   500.3
   682.1
   769.0
   622.6
   622.6
   500.2
   500.2
   500.3
   769.0
   769.0
   769.0
   500.3
   500.3
   500.3
   698.7
   657.1
   657.1
   769.1
   500.3
   500.3
   500.3
   769.1
   769.1
   769.1
   500.3
   500.3
   500.3
   769.1
   769.1
   769.1
   500.3
   500.4
   500.4
   769.1
   769.1
   769.1
   769.2
   500.2
   500.3
   500.2
   769.0
   769.0
   769.0
   500.4
   500.2
   500.4
   769.2
   769.2
   769.2
   500.4
   500.2
   500.4
   769.2
   769.2
   769.2
   769.2
   500.3
   500.3
   500.3
   769.1
   769.1
   769.1
   500.4
   500.4
   500.4
   769.2
   769.2
   769.2
   500.4
   500.4
   500.4
   740.3
   740.3
   500.3
   500.3
   500.3
   769.1
   769.1
   500.4
   500.4
   500.2
   769.2
   769.2
   769.2
   769.3
   500.4
   500.4
   500.4
   754.8
   769.2
   740.3
   500.6
   500.4
   500.4
   769.2
   769.2
   500.6
   500.6
   500.4
   673.9
   673.9
   500.4
   500.4
   500.4
   769.2
   769.3
   769.3
   769.2
   134.9
   199.8
     0.0
   480.0
   445.8
   514.2
   500.3
   500.5
   244.8
   675.7
   769.1
   609.2
   614.0
   500.3
   500.5
   500.5
   681.9
   769.1
   623.0
   623.0
   134.9
   244.8
   199.8
   494.7
   445.8
   543.7
     0.0
   134.9
     0.0
   430.6
   430.6
   244.6
   134.9
     0.0
   443.9
   457.2
   430.6
   500.3
   500.3
   500.3
   769.0
   769.0
   500.3
   500.2
   500.3
   769.0
   769.0
   769.0
   315.4
   207.0
   306.6
   572.5
   530.1
   615.0
   107.2
   101.7
   225.4
   453.4
   459.5
   447.4
   101.7
     0.0
     0.0
   470.7
   470.7
   315.4
   306.6
   500.4
   636.3
   652.4
   615.0
   654.2
   315.4
   321.6
   225.4
   578.6
   547.3
   609.9
   500.4
   500.2
   500.4
   769.2
   769.2
   769.2
   500.6
   500.4
   500.5
   644.9
   623.0
   623.0
   696.2
   500.4
   500.2
   500.3
   769.1
   769.1
   769.0
   500.4
   500.4
   500.6
   623.1
   623.1
   623.1
   500.4
   500.4
   500.4
   769.1
   769.1
   500.3
   500.3
   500.3
   622.8
   622.8
   500.6
   500.4
   500.4
   732.7
   696.2
   769.2
   500.3
   500.2
   500.2
   694.0
   769.1
   622.7
   622.7
   500.6
   500.4
   500.4
   769.2
   769.3
   769.2
   769.2
   500.2
   500.5
   500.5
   769.1
   769.0
   769.4
   769.0
   500.4
   500.4
   500.4
   769.2
   769.2
   500.2
   500.2
   500.2
   696.7
   624.4
   769.0
   500.2
   500.4
   500.4
   695.9
   769.0
   622.9
   500.2
   500.2
   500.1
   768.9
   768.9
   768.9
   769.0
   500.3
   500.3
   500.3
   746.4
   769.1
   723.7
   500.3
   500.5
   500.3
   769.2
   769.1
   769.3
   769.1
   500.3
   500.5
   500.3
   769.1
   769.2
   769.1
   769.1
   500.4
   500.4
   500.4
   760.3