# vtk DataFile Version 3.0
Landscape
ASCII
DATASET UNSTRUCTURED_GRID
POINTS      22692 float
           0.000           0.000           0.000
        1600.000           0.000           0.000
           0.000        1600.000           0.000
         533.333         533.333           0.000
        1820.535        1836.129         166.774
        1600.000           0.000           0.000
        3200.000           0.000           0.000
        2206.845         612.043         364.813
        1762.045        1349.153         364.813
        4436.497        1560.645         217.133
        3200.000           0.000           0.000
        4800.000           0.000           0.000
        4145.499         520.215         354.284
        4511.903        1236.903         354.284
        6234.052        1737.813          85.853
        4800.000           0.000           0.000
        6400.000           0.000           0.000
        5811.350         579.271         376.877
        5745.606        1145.905         376.877
        8231.839        1585.959         186.204
        6400.000           0.000           0.000
        8000.000           0.000           0.000
        7993.756        1210.362         378.294
        7812.399        1222.819         409.525
        8175.112        1197.905         347.063
        8231.839        1585.959         186.204
        8000.000           0.000           0.000
        9600.000           0.000           0.000
        8610.613         528.653         347.063
        8175.112        1197.905         347.063
       10114.256        2299.635         239.561
       10506.534         877.165          69.322
       11192.297        1979.624         187.222
       10604.362        1718.808         442.279
       10585.910        2159.627         442.279
       11192.297        1979.624         187.222
       11200.000           0.000           0.000
       12800.000           0.000           0.000
       11371.756        1526.480         397.740
       11194.112        1513.050         378.571
       11549.399        1539.911         416.909
       14535.388        1860.001         102.096
       12800.000           0.000           0.000
       14400.001           0.000           0.000
       14239.844        1258.784         374.803
       13989.213        1274.606         398.583
       14490.475        1242.962         351.023
       14535.388        1860.001         102.096
       14400.001           0.000           0.000
       16000.000           0.000           0.000
       14978.463         620.000         351.023
       14490.475        1242.962         351.023
       17224.315        1919.917         272.058
       16000.000           0.000           0.000
       17600.000           0.000           0.000
       16941.438         639.972         392.231
       17280.366        1633.470         392.231
       18961.790        1751.968          62.768
       17600.000           0.000           0.000
       19200.000           0.000           0.000
       18587.263         583.989         365.558
       18446.608        1089.178         365.558
        4436.497        1560.645         217.133
        1820.535        1836.129         166.774
        3200.000           0.000           0.000
        3152.344        1132.258         535.589
        3393.208        1670.512         535.589
       23731.335        1792.943         192.754
       22400.000           0.000           0.000
       24000.001           0.000           0.000
       23377.112         597.648         366.676
       23794.585        1370.847         366.676
       25712.931        1511.197          82.721
       24000.001           0.000           0.000
       25599.999           0.000           0.000
       25104.310         503.732         377.605
       25121.271         989.218         377.605
       25712.931        1511.197          82.721
       27200.000           0.000           0.000
       27507.238        1603.221         195.705
       26806.723        1038.139         386.083
       26225.338         990.476         367.959
       27435.098        1226.783         352.492
       26920.061        1573.107         431.070
       27507.238        1603.221         195.705
       27200.000           0.000           0.000
       28800.001           0.000           0.000
       27835.746         534.407         352.492
       27435.098        1226.783         352.492
       30065.602        1613.570         337.165
       28800.001           0.000           0.000
       30400.000           0.000           0.000
       30022.684        1498.110         397.246
       29959.852        1478.744         411.289
       30085.517        1517.476         383.203
       31040.554         771.051         145.434
       30065.602        1613.570         337.165
       30400.000           0.000           0.000
       30467.609        1029.395         326.351
       30849.700         541.315         269.498
       30085.517        1517.476         383.203
       31415.600        1997.898         207.711
       33371.579        1994.991         113.898
       33224.678        2857.386         181.207
       32139.652        2187.485         491.871
       32063.577        1996.935         470.192
       32215.726        2378.036         513.549
       34548.701        1811.800         341.944
       34459.486        2336.808         253.456
       33371.579        1994.991         113.898
       34126.589        2047.867         410.720
       34522.994        1963.080         410.720
        6234.052        1737.813          85.853
        6043.012        3262.445         190.517
        5160.666        3300.186         371.785
        5812.577        2766.815         463.771
        5362.610        3291.548         463.771
       37099.539        1414.823         282.159
       35200.000           0.000           0.000
       36800.001           0.000           0.000
       36366.513         471.608         355.900
       37064.229        1248.042         355.900
       37099.539        1414.823         282.159
       36800.001           0.000           0.000
       38399.999           0.000           0.000
       37173.113        1232.181         374.927
       37064.229        1248.042         355.900
       37281.997        1216.320         393.954
       39191.316         917.871          56.628
       38399.999           0.000           0.000
       40000.000           0.000           0.000
       39197.105         305.957         266.092
       38852.587         524.970         266.092
       40125.312        1643.514          96.466
       41599.998           0.000           0.000
       41840.942        1855.796         244.889
       41188.751        1166.437         403.586
       40600.275        1114.175         380.131
       41797.381        1520.284         383.554
       41339.712        1793.777         447.562
       41840.942        1855.796         244.889
       41599.998           0.000           0.000
       43200.002           0.000           0.000
       42213.647         618.599         383.554
       41797.381        1520.284         383.554
       43418.644        1867.336         118.836
       43200.002           0.000           0.000
       44800.000           0.000           0.000
       43806.215         622.445         358.218
       43349.626        1277.878         358.218
       34548.701        1811.800         341.944
       37099.539        1414.823         282.159
       36841.038        3085.085         238.654
       36163.093        2103.903         599.995
       35395.900        1679.954         636.998
       36994.975        2090.450         552.908
       35147.147        2144.209         614.617
       48116.282        1628.322         138.014
       49975.028        1831.460         393.085
       48146.017        3166.706         321.908
       49551.410        2018.438         588.008
       49683.653        1799.616         512.137
       49419.166        2237.259         663.878
       10114.256        2299.635         239.561
        8231.839        1585.959         186.204
       10506.534         877.165          69.322
        9154.479        1708.415         494.457
        9418.850        2035.988         527.707
        8890.107        1380.843         461.206
       52954.322        1538.422         201.380
       52800.002           0.000           0.000
       54400.001           0.000           0.000
       53384.775         512.807         348.659
       52919.369        1189.981         348.659
       45576.245        1448.210         103.242
       46228.872        2830.415         225.241
       43557.179        3128.631         192.373
       44654.795        2763.713         526.338
       45079.687        2958.688         555.797
       44229.904        2568.738         496.878
       59004.449        1641.677          94.743
       57600.002           0.000           0.000
       59200.001           0.000           0.000
       58601.484         547.226         332.825
       59073.672        1060.545         332.825
       38196.713        1837.356         123.941
       37099.539        1414.823         282.159
       38399.999           0.000           0.000
       37898.751        1084.060         385.127
       38260.070        1264.722         355.878
       37281.997        1216.320         393.954
       37423.021        1539.399         423.591
       60471.826        1510.939         241.787
       59200.001           0.000           0.000
       60799.999           0.000           0.000
       60157.275         503.646         358.965
       60531.905        1234.332         358.965
       25712.931        1511.197          82.721
       25600.029        2863.835         195.379
       23731.335        1792.943         192.754
       24524.322        2022.660         482.550
       24688.941        2341.718         518.621
[...]
POINT_DATA      22692
SCALARS height float 1
LOOKUP_TABLE default
     0.0
     0.0
     0.0
     0.0
   166.8
     0.0
     0.0
   364.8
   364.8
   217.1
     0.0
     0.0
   354.3
   354.3
    85.9
     0.0
     0.0
   376.9
   376.9
   186.2
     0.0
     0.0
   378.3
   409.5
   347.1
   186.2
     0.0
     0.0
   347.1
   347.1
   239.6
    69.3
   187.2
   442.3
   442.3
   187.2
     0.0
     0.0
   397.7
   378.6
   416.9
   102.1
     0.0
     0.0
   374.8
   398.6
   351.0
   102.1
     0.0
     0.0
   351.0
   351.0
   272.1
     0.0
     0.0
   392.2
   392.2
    62.8
     0.0
     0.0
   365.6
   365.6
   217.1
   166.8
     0.0
   535.6
   535.6
   192.8
     0.0
     0.0
   366.7
   366.7
    82.7
     0.0
     0.0
   377.6
   377.6
    82.7
     0.0
   195.7
   386.1
   368.0
   352.5
   431.1
   195.7
     0.0
     0.0
   352.5
   352.5
   337.2
     0.0
     0.0
   397.2
   411.3
   383.2
   145.4
   337.2
     0.0
   326.4
   269.5
   383.2
   207.7
   113.9
   181.2
   491.9
   470.2
   513.5
   341.9
   253.5
   113.9
   410.7
   410.7
    85.9
   190.5
   371.8
   463.8
   463.8
   282.2
     0.0
     0.0
   355.9
   355.9
   282.2
     0.0
     0.0
   374.9
   355.9
   394.0
    56.6
     0.0
     0.0
   266.1
   266.1
    96.5
     0.0
   244.9
   403.6
   380.1
   383.6
   447.6
   244.9
     0.0
     0.0
   383.6
   383.6
   118.8
     0.0
     0.0
   358.2
   358.2
   341.9
   282.2
   238.7
   600.0
   637.0
   552.9
   614.6
   138.0
   393.1
   321.9
   588.0
   512.1
   663.9
   239.6
   186.2
    69.3
   494.5
   527.7
   461.2
   201.4
     0.0
     0.0
   348.7
   348.7
   103.2
   225.2
   192.4
   526.3
   555.8
   496.9
    94.7
     0.0
     0.0
   332.8
   332.8
   123.9
   282.2
     0.0
   385.1
   355.9
   394.0
   423.6
   241.8
     0.0
     0.0
   359.0
   359.0
    82.7
   195.4
   192.8
   482.5
   518.6
   446.5
   138.0
   199.5
   393.1
   455.0
   512.1
   397.8
    57.0
     0.0
     0.0
   250.5
   250.5
   357.7
    75.5
   167.7
   499.2
   499.2
   102.1
   187.2
     0.0
   455.8
   398.6
   416.9
   520.7
   116.2
     0.0
     0.0
   346.0
   319.1
   372.8
   179.4
     0.0
     0.0
   377.2
   401.3
   353.1
    84.4
   359.6
   179.4
   388.1
   388.1
   241.8
    94.7
     0.0
   379.0
   332.8
   425.2
   118.5
   247.6
   241.8
   522.5
   572.3
   472.7
    62.8
   246.8
   135.1
   484.7
   437.5
   531.9
   118.1
   254.8
   246.8
   484.3
   537.8
   430.7
   272.1
   102.1
     0.0
   514.7
   514.7
    69.3
   186.2
     0.0
   461.2
   461.2
   166.8
     0.0
     0.0
   423.1
   364.8
   481.4
   246.8
     0.0
     0.0
   399.6
   422.2
   377.0
   118.9
     0.0
   118.1
   279.2
   279.2
    84.4
     0.0
     0.0
   368.6
   368.6
    84.4
     0.0
   201.4
   391.6
   376.6
   348.7
   439.0
    85.9
   217.1
     0.0
   392.5
   376.9
   354.3
   438.4
    84.4
   201.4
   193.7
   484.7
   530.5
   439.0
   116.2
     0.0
     0.0
   319.1
   319.1
   152.1
   322.5
   187.2
   570.1
   549.3
   590.9
   182.0
   201.4
     0.0
   469.3
   389.6
   549.0
   337.2
   195.7
     0.0
   495.6
   411.3
   579.9
   581.0
   322.5
   152.1
   600.9
   590.9
   611.0
   118.5
     0.0
     0.0
   391.8
   391.8
   326.4
     0.0
     0.0
   407.6
   425.0
   390.3
   381.6
   407.3
   195.4
   586.9
   550.8
   622.9
   270.1
   246.8
   254.8
   584.8
   608.4
   537.8
   594.3
   274.3
   152.1
   272.1
   558.9
   552.4
   563.7
   562.6
    62.8
   135.1
   274.3
   462.6
   462.6
   207.7
    43.4
   113.9
   470.2
   470.2
   103.2
     0.0
   336.8
   369.2
   334.6
   361.8
   422.4
   336.8
     0.0
     0.0
   361.8
   361.8
   238.7
   282.2
   123.9
   488.2
   423.6
   552.9
    96.5
    56.6
     0.0
   315.2
   315.2
    96.5
   123.9
    56.6
   372.7
   430.1
   315.2
   427.4
   442.3
   195.7
   676.1
   539.5
   613.7
   761.3
   118.8
   244.9
     0.0
   404.2
   358.2
   450.1
   182.0
     0.0
     0.0
   366.5
   389.6
   343.4
   182.0
     0.0
     0.0
   343.4
   343.4
   138.0
     0.0
   199.5
   397.8
   397.8
   581.2
   195.4
   442.3
   642.8
   546.1
   739.6
   167.7
     0.0
     0.0
   387.5
   365.2
   409.7
   188.5
    64.2
   296.5
   472.6
   472.6
   461.9
   201.4
   182.0
   579.8
   549.0
   610.6
   103.2
   192.4
   118.8
   471.6
   446.3
   496.9
    94.7
   182.0
     0.0
   515.7
   515.7
   116.2
   296.5
     0.0
   446.0
   404.0
   488.0
   179.4
   116.2
     0.0
   443.9
   401.3
   372.8
   513.5
   118.5
   241.8
     0.0
   413.9
   391.8
   359.0
   472.7
   138.0
   225.2
   336.8
   509.9
   547.4
   468.7
   508.3
   392.1
   321.9
   622.2
   610.7
   577.3
   644.1
   193.7
   321.9
   393.1
   608.6
   537.3
   663.9
   600.9
   357.7
    57.0
    75.5
   454.9
   522.1
   386.9
   499.2
    64.2
   167.7
     0.0
   435.8
   409.7
   462.0
   384.3
   186.2
   456.2
   640.9
   591.1
   578.6
   725.9
   226.2
     0.0
     0.0
   405.6
   435.6
   375.5
   226.2
     0.0
     0.0
   472.8
   375.5
   570.2
   204.3
   116.2
   179.4
   537.5
   513.5
   561.6
   359.6
   226.2
   176.0
   564.5
   607.5
   508.1
   602.4
   204.3
   369.8
   296.5
   601.6
   638.3
   561.8
   629.6
     0.0
   226.2
     0.0
   504.1
   570.2
   438.0
    85.9
   371.8
   217.1
   502.0
   565.5
   438.4
   239.6
   322.5
   456.2
   577.5
   650.5
   504.6
   384.9
   166.8
   217.1
   555.0
   535.6
   574.4
     0.0
     0.0
   166.8
   500.8
   481.4
   520.1
   185.2
   166.8
   384.9
   544.0
   523.5
   564.6
   371.8
   384.9
   217.1
   611.8
   565.5
   574.4
   677.8
   576.6
   384.9
   371.8
   699.2
   720.6
   677.8
   407.3
   625.4
   376.1
   719.7
   719.4
   733.9
   712.0
    82.7
   442.3
   195.4
   546.1
   546.1
   576.6
   185.2
   384.9
   618.9
   720.6
   564.6
   629.4
   185.2
     0.0
     0.0
   467.1
   500.8
   433.4
   461.9
   193.7
   201.4
   550.6
   530.5
   570.7
   152.1
   187.2
   102.1
   535.0
   520.7
   549.3
   152.1
   102.1
   272.1
   533.6
   514.7
   552.4
   118.9
   118.1
   246.8
   355.0
   430.7
   279.2
    82.7
   192.8
     0.0
   399.1
   377.6
   366.7
   446.5
   700.4
   456.2
   581.0
   800.3
   792.9
   780.7
   822.9
    62.8
   274.3
   272.1
   485.4
   427.9
   563.7
   462.6
   419.0
   581.0
   152.1
   690.3
   611.0
   769.7
   427.4
   195.7
   337.2
   599.1
   579.9
   613.7
   627.3
   207.7
   337.2
   145.4
   475.1
   520.3
   429.8
   412.3
   253.5
   238.7
   603.2
   581.6
   624.9
   192.4
   244.9
   118.8
   494.5
   538.8
   450.1
   207.7
   145.4
    43.4
   404.1
   378.4
   429.8
   207.7
   477.1
   427.4
   688.0
   763.1
   613.0
   103.2
   118.8
     0.0
   446.3
   446.3
   300.6
   244.9
   192.4
   564.4
   589.9
   538.8
   253.5
   181.2
   113.9
   476.8
   476.8
   381.6
   581.2
   700.7
   764.8
   731.4
   823.2
   728.5
   270.1
   280.7
   135.1
   607.1
   607.1
   433.5
   123.9
   240.8
   569.7
   572.0
   525.3
   630.7
   700.2
   442.3
   427.4
   762.3
   763.4
   761.3
   762.7
   270.1
   135.1
   246.8
   570.2
   608.4
   531.9
    84.4
   193.7
   393.1
   482.1
   426.8
   537.3
    57.0
   225.6
   326.4
   528.7
   528.7
   438.7
   182.0
    94.7
   552.0
   610.0
   515.7
   540.3
   215.6
    94.7
   241.8
   488.3
   425.2
   551.3
   552.0
   192.4
   225.2
   592.1
   555.8
   628.4
   188.5
   167.7
    64.2
   482.3
   502.6
   462.0
   225.6
   247.6
   326.4
   568.0
   602.5
   528.7
   557.0
   392.1
   622.2
   700.1
   837.3
   918.5
   756.1
   539.0
   193.7
   461.9
   687.5
   570.7
   804.3
   412.7
   615.2
   433.5
   750.5
   768.9
   732.1
   527.7
   461.9
   182.0
   707.1
   610.6
   803.7
   438.7
    94.7
   215.6
   540.3
   540.3
   247.6
   215.6
   241.8
   570.8
   572.3
   551.3
   584.6
   700.3
   539.0
   461.9
   802.4
   783.4
   804.3
   822.8
   204.3
   296.5
   116.2
   524.9
   488.0
   561.8
   357.7
   557.5
   225.6
   620.1
   628.9
   611.3
   357.7
   225.6
    57.0
   566.7
   611.3
   522.1
   410.4
   215.6
   247.6
   624.7
   584.6
   664.9
   407.3
   376.1
   254.8
   654.3
   600.9
   600.4
   712.0
   427.5
   179.4
   466.7
   686.5
   615.8
   757.3
   188.5
   548.6
   167.7
   549.3
   502.6
   596.1
   328.8
   280.7
   566.8
   659.3
   649.4
   669.3
   359.6
   466.7
   179.4
   675.1
   675.1
     0.0
   226.2
     0.0
   438.0
   438.0
   427.5
   603.4
   661.4
   810.2
   761.3
   859.0
   373.3
   176.0
   194.0
   503.9
   568.0
   439.8
   385.6
   700.4
   610.9
   774.0
   822.9
   725.1
   228.8
   185.2
   576.6
   595.0
   553.7
   629.4
   639.8
   359.6
   176.0
   466.7
   627.6
   616.1
   675.1
   602.4
     0.0
   176.0
   226.2
   465.9
   508.1
   423.7
   581.0
   456.2
   322.5
   715.6
   650.5
   780.7
   185.2
     0.0
   166.8
   516.1
   523.5
   520.1
   500.8
   385.6
   371.8
   190.5
   571.1
   678.4
   463.8
   384.3
   456.2
   644.3
   753.2
   780.5
   725.9
   700.7
   700.2
   700.4
   879.0
   823.1
   969.0
   823.2
   700.4
   581.0
   419.0
   790.9
   822.9
   769.7
   778.7
   385.6
   190.5
   384.3
   647.7
   647.7
   328.8
   566.8
   419.0
   664.9
   722.8
   607.0
   280.7
   274.3
   135.1
   566.9
   566.9
   253.5
   590.2
   181.2
   566.1
   476.8
   655.4
   590.2
   477.1
   181.2
   790.0
   790.0
   319.9
   576.6
   610.9
   771.7
   703.0
   874.3
   664.1
   700.2
   581.2
   442.3
   777.2
   763.4
   739.6
   822.7
   477.1
   700.2
   427.4
   787.1
   763.1
   762.7
   822.7
   376.1
   700.7
   585.0
   798.8
   897.6
   734.8
   725.2
   253.5
   642.8
   590.2
   718.7
   831.1
   655.4
   658.0
   433.5
   238.7
   123.9
   572.0
   572.0
   300.6
   240.8
   244.9
   584.8
   571.0
   589.9
   595.2
   700.2
   700.2
   477.1
   821.6
   822.7
   822.7
   819.3
   480.4
   552.0
   669.9
   827.7
   798.6
   856.9
   639.4
   225.6
   557.5
   745.9
   628.9
   863.0
   700.5
   477.1
   590.2
   818.1
   810.8
   790.0
   873.4
   700.2
   477.1
   700.5
   886.6
   831.1
   810.8
   969.0
   658.1
   700.3
   527.7
   822.8
   822.9
   822.8
   822.8
   412.3
   433.5
   700.5
   751.3
   731.0
   777.2
   751.6
   412.3
   700.5
   642.8
   787.3
   823.0
   751.6
   319.9
   207.0
   228.8
   552.3
   510.9
   593.7
   566.8
   575.7
   700.3
   870.9
   865.6
   876.7
   872.6
   622.2
   321.9
   193.7
   618.4
   600.9
   644.1
   639.0
   539.0
   622.2
   193.7
   750.7
   639.0
   862.3
   480.4
   300.6
   192.4
   582.8
   582.8
   700.3
   461.9
   527.7
   803.0
   803.7
   783.4
   822.9
   438.7
   658.1
   527.7
   788.6
   754.4
   822.8
   700.1
   622.2
   539.0
   838.2
   822.6
   862.3
   822.6
   700.5
   700.5
   642.8
   874.0
   924.9
   823.0
   585.0
   575.7
   280.7
   765.2
   654.4
   876.0
   447.8
   247.6
   225.6
   565.4
   573.9
   557.0
   447.8
   410.4
   247.6
   703.9
   573.9
   664.9
   767.2
   700.3
   700.3
   658.1
   885.1
   822.8
   947.4
   700.1
   539.0
   700.2
   807.1
   822.7
   762.8
   822.7
   438.7
   410.4
   613.9
   751.8
   728.2
   775.4
   551.0
   548.6
   369.8
   768.0
   840.3
   695.7
   472.5
   369.8
   204.3
   688.3
   746.9
   629.6
   551.0
   557.5
   548.6
   851.4
   846.0
   840.3
   860.8
   639.4
   557.5
   671.7
   892.4
   863.0
   921.7
   671.7
   557.5
   551.0
   868.5
   860.8
   876.2
   472.5
   551.0
   369.8
   784.4
   746.9
   821.8
   427.5
   472.5
   204.3
   726.0
   726.0
   700.3
   658.1
   613.9
   923.2
   949.6
   907.3
   914.9
   427.5
   661.4
   655.0
   855.1
   938.2
   772.0
     0.0
   176.0
     0.0
   423.7
   423.7
   373.3
   466.7
   176.0
   623.6
   710.6
   616.1
   568.0
     0.0
   194.0
   176.0
   439.8
   439.8
   197.1
   194.0
     0.0
   479.0
   479.0
   700.7
   700.7
   700.4
   823.2
   823.2
   823.2
   700.5
   700.5
   700.5
   969.3
   969.3
   385.6
   384.3
   700.4
   690.0
   720.7
   725.1
   647.7
    87.2
     0.0
     0.0
   220.7
   220.7
    93.5
    87.2
   185.2
   409.0
   462.6
   355.4
   700.4
   644.3
   456.2
   795.3
   792.9
   780.5
   822.9
   585.0
   280.7
   270.1
   630.7
   607.1
   654.4
   700.4
   581.0
   700.4
   822.9
   822.9
   822.9
   822.9
   566.8
   280.7
   575.7
   767.4
   669.3
   865.6
   700.4
   610.9
   700.4
   864.7
   906.4
   822.9
   612.8
   700.4
   419.0
   800.8
   778.7
   822.9
   700.4
   700.4
   612.8
   868.6
   822.9
   914.3
   376.1
   700.7
   700.7
   727.4
   725.2
   729.5
   700.5
   590.2
   642.8
   879.8
   831.1
   873.4
   924.9
   700.5
   585.0
   700.5
   851.9
   880.9
   823.0
   376.1
   585.0
   270.1
   734.8
   734.8
   700.3
   700.2
   612.8
   924.9
   899.0
   904.8
   969.0
   700.7
   581.2
   700.2
   848.6
   823.2
   879.8
   823.1
   700.2
   581.2
   700.2
   840.0
   822.7
   879.8
   822.7
   692.0
   700.5
   433.5
   783.5
   733.4
   777.2
   823.0
   700.2
   700.2
   700.2
   894.2
   822.7
   822.7
   969.0
   700.2
   700.2
   700.2
   896.5
   969.0
   823.9
   412.7
   433.5
   240.8
   681.4
   630.7
   732.1
   392.1
   700.1
   552.0
   782.7
   848.7
   749.0
   756.1
   700.2
   539.0
   700.3
   807.6
   822.8
   762.8
   822.7
   700.3
   700.2
   700.3
   822.7
   822.7
   822.7
   615.2
   692.0
   433.5
   751.2
   768.9
   733.4
   700.3
   615.2
   669.9
   932.5
   919.2
   921.8
   955.1
   700.2
   700.2
   700.2
   823.9
   823.9
   700.3
   700.3
   700.5
   969.1
   969.1
   969.1
   969.1
   480.4
   615.2
   433.8
   761.8
   768.7
   714.7
   820.9
   700.1
   669.9
   552.0
   883.0
   848.7
   856.9
   936.9
   700.1
   700.1
   622.2
   870.6
   822.6
   918.5
   700.1
   700.1
   700.1
   936.9
   936.9
   700.2
   669.9
   700.1
   866.6
   822.7
   936.9
   822.7
   700.4
   700.4
   700.4
   860.1
   935.4
   822.9
   822.9
   700.4
   319.9
   610.9
   763.4
   911.0
   664.1
   704.4
   700.2
   612.8
   700.2
   860.8
   822.7
   899.0
   438.7
   613.9
   658.1
   841.4
   907.3
   775.4
   520.5
   410.4
   447.8
   785.9
   767.2
   804.5
   700.3
   700.2
   700.3
   872.9
   822.7
   822.7
   969.1
   389.2
   373.3
   197.1
   600.5
   553.8
   647.3
   520.5
   613.9
   410.4
   826.0
   826.0
   687.4
   520.5
   580.0
   862.9
   845.2
   848.9
   891.3
   700.5
   551.0
   472.5
   834.5
   857.7
   821.8
   831.6
   580.0
   520.5
   447.8
   826.7
   804.5
   848.9
   640.1
   700.3
   613.9
   914.6
   901.7
   914.9
   932.0
   639.4
   671.7
   650.1
   929.1
   937.1
   921.7
   926.7
   700.3
   700.3
   700.3
   969.1
   969.1
   969.1
   969.1
   687.4
   640.1
   520.5
   845.2
   845.2
   700.4
   700.6
   700.4
   878.2
   823.1
   823.1
   969.2
   566.8
   700.3
   612.8
   874.5
   852.9
   904.8
   872.6
   700.5
   671.7
   551.0
   904.5
   857.7
   876.2
   953.6
   700.6
   472.5
   655.0
   881.1
   825.2
   937.1
   661.4
   620.5
   700.5
   837.3
   876.0
   823.0
   823.0
   661.4
   700.5
   655.0
   866.1
   823.0
   938.2
   823.0
   389.2
   603.4
   373.3
   682.8
   718.3
   647.3
     0.0
   197.1
     0.0
   519.5
   519.5
   700.5
   700.5
   655.0
   879.9
   936.8
   823.0
   389.2
   241.7
   620.5
   620.2
   644.2
   596.2
   319.9
   228.8
   576.6
   638.9
   703.0
   639.8
   593.7
    93.5
     0.0
     0.0
   430.2
   430.2
    99.8
    93.5
   228.8
   415.2
   436.3
   394.2
   700.4
   700.4
   700.4
   822.9
   822.9
   700.4
   610.9
   700.4
   908.7
   906.4
   911.0
   700.6
   700.7
   700.7
   823.1
   823.1
   823.1
   700.2
   700.2
   477.1
   875.2
   831.1
   819.3
   969.0
   700.4
   700.6
   700.7
   823.1
   823.2
   823.1
   823.1
   700.2
   700.4
   612.8
   856.3
   822.7
   914.3
   822.7
   700.2
   700.4
   700.4
   947.9
   935.4
   935.4
   969.1
   700.2
   700.2
   700.2
   969.0
   969.0
   700.6
   700.7
   700.6
   896.2
   969.3
   823.1
   700.3
   700.5
   700.5
   896.0
   823.0
   969.1
   700.2
   700.2
   700.2
   969.0
   969.0
   700.6
   700.6
   700.5
   823.0
   823.0
   823.0
   700.3
   700.5
   692.0
   966.1
   965.3
   964.3
   969.3
   700.2
   700.4
   700.2
   896.5
   969.0
   823.9
   700.2
   700.2
   700.4
   880.7
   822.7
   969.1
   822.7
   700.3
   615.2
   700.3
   935.2
   920.6
   919.2
   969.0
   700.5
   700.4
   700.5
   947.7
   969.2
   969.2
   873.8
   700.5
   700.5
   692.0
   894.1
   823.0
   965.3
   700.3
   692.0
   615.2
   938.5
   964.3
   912.6
   700.2
   700.2
   700.2
   823.9
   823.9
   700.3
   700.3
   700.2
   876.2
   822.7
   822.7
   969.1
   700.2
   700.5
   700.2
   969.0
   969.0
   969.0
   700.1
   700.2
   700.3
   822.7
   822.7
   822.7
   822.6
   700.2
   700.3
   669.9
   869.9
   822.7
   955.1
   822.7
   700.3
   700.3
   615.2
   936.1
   920.6
   912.6
   969.1
   700.4
   700.4
   700.4
   822.9
   822.9
   700.2
   700.4
   700.2
   896.5
   969.0
   823.9
   700.3
   700.3
   700.2
   873.7
   822.7
   822.7
   969.0
   700.1
   700.2
   700.1
   858.4
   936.9
   822.7
   822.7
   700.2
   700.2
   700.1
   895.8
   822.7
   968.9
   700.1
   700.3
   700.3
   881.2
   969.0
   822.6
   822.6
   700.2
   700.2
   700.2
   969.1
   969.1
   969.1
   700.3
   700.3
   658.1
   955.4
   949.6
   947.4
   969.1
   640.1
   613.9
   520.5
   863.8
   826.0
   901.7
   700.3
   700.3
   700.3
   969.1
   969.1
   969.1
   700.3
   700.4
   700.4
   969.1
   969.1
   969.1
   969.2
   700.2
   700.2
   700.2
   969.0
   969.0
   969.1
   650.1
   671.7
   682.8
   944.7
   952.3
   937.1
   700.5
   671.7
   700.5
   958.1
   951.8
   953.6
   969.2
   700.3
   640.1
   687.4
   945.4
   929.2
   961.6
   650.1
   682.8
   700.3
   949.2
   959.0
   939.4
   700.5
   700.5
   700.5
   940.3
   940.3
   700.3
   700.3
   700.3
   969.1
   969.1
   700.5
   682.8
   671.7
   954.7
   951.8
   952.3
   959.5
   700.5
   700.5
   700.5
   954.8
   969.2
   940.3
   700.6
   700.5
   700.5
   969.3
   969.3
   700.5
   700.5
   700.5
   873.8
   873.8
   700.5
   682.8
   700.5
   962.0
   959.6
   959.5
   969.2
   127.0
   197.1
     0.0
   481.4
   443.3
   519.5
   422.7
   640.5
   700.5
   793.2
   823.0
   763.3
   422.7
   700.5
   620.5
   785.1
   769.2
   823.0
   763.3
   389.2
   127.0
   241.7
   564.3
   596.2
   532.3
     0.0
   127.0
     0.0
   426.5
   426.5
   268.8
   127.0
     0.0
   444.7
   462.9
   426.5
   700.3
   700.3
   700.3
   969.0
   969.0
   700.3
   700.2
   700.3
   969.0
   969.0
   969.0
   323.4
   207.0
   319.9
   589.5
   540.2
   638.9
   103.3
    99.8
   223.0
   456.9
   463.4
   450.5
    99.8
     0.0
     0.0
   476.5
   476.5
   323.4
   319.9
   700.4
   671.9
   707.3
   638.9
   702.8
   323.4
   370.0
   223.0
   603.2
   563.5
   642.9
   700.4
   700.2
   700.4
   969.1
   969.1
   969.1
   700.6
   700.4
   700.5
   844.9
   823.0
   823.0
   896.2
   700.3
   700.2
   700.3
   969.1
   969.1
   969.0
   700.4
   700.4
   700.6
   823.1
   823.1
   823.1
   700.4
   700.4
   700.4
   969.1
   969.1
   700.3
   700.3
   700.3
   822.8
   822.8
   700.6
   700.4
   700.4
   932.7
   896.2
   969.2
   700.3
   700.2
   700.2
   894.0
   969.1
   822.7
   822.7
   700.6
   700.4
   700.4
   969.2
   969.2
   969.2
   969.2
   700.2
   700.5
   700.5
   969.1
   969.0
   969.3
   969.0
   700.4
   700.4
   700.4
   969.2
   969.2
   700.2
   700.2
   700.2
   896.5
   823.9
   969.0
   700.2
   700.4
   700.4
   896.0
   969.0
   822.9
   700.3
   700.2
   700.1
   968.9
   968.9
   968.9
   969.0
   700.3
   700.3
   700.3
   946.4
   969.1
   923.7
   700.3
   700.5
   700.3
   969.2
   969.1
   969.3
   969.1
   700.3
   700.5
   700.3
   969.1
   969.1
   969.1
   969.1
   700.4
   700.4
   700.4
   937.4
   917.3
   969.2
   917.3
   700.3
   700.3
   700.3
   824.4
   822.8
   822.8
   828.0
   700.4
   700.5
   640.5
   854.4
   823.0
   823.0
   927.7
   700.3
   700.3
   700.2
   822.7
   822.7
   822.7
   700.2
   700.3