# vtk DataFile Version 3.0
Landscape
ASCII
DATASET UNSTRUCTURED_GRID
POINTS       1892 float
           0.000           0.000           0.000
        1600.000           0.000           0.000
        3200.000           0.000           0.000
        4800.000           0.000           0.000
        6400.000           0.000           0.000
        8000.000           0.000           0.000
        9600.000           0.000           0.000
       11200.000           0.000           0.000
       12800.000           0.000           0.000
       14400.001           0.000           0.000
       16000.000           0.000           0.000
       17600.000           0.000           0.000
       19200.000           0.000           0.000
       20799.999           0.000           0.000
       22400.000           0.000           0.000
       24000.001           0.000           0.000
       25599.999           0.000           0.000
       27200.000           0.000           0.000
       28800.001           0.000           0.000
       30400.000           0.000           0.000
       32000.000           0.000           0.000
       33599.999           0.000           0.000
       35200.000           0.000           0.000
       36800.001           0.000           0.000
       38399.999           0.000           0.000
       40000.000           0.000           0.000
       41599.998           0.000           0.000
       43200.002           0.000           0.000
       44800.000           0.000           0.000
       46399.999           0.000           0.000
       48000.002           0.000           0.000
       49600.000           0.000           0.000
       51199.999           0.000           0.000
       52800.002           0.000           0.000
       54400.001           0.000           0.000
       55999.999           0.000           0.000
       57600.002           0.000           0.000
       59200.001           0.000           0.000
       60799.999           0.000           0.000
       62399.998           0.000           0.000
       64000.001           0.000           0.000
       65599.999           0.000           0.000
       67199.998           0.000           0.000
       68800.001           0.000           0.000
       70400.000           0.000           0.000
       71999.998           0.000           0.000
       73600.001           0.000           0.000
       75200.000           0.000           0.000
       76799.998           0.000           0.000
       78400.002           0.000           0.000
       80000.000           0.000           0.000
           0.000        1600.000           0.000
        1820.535        1836.129         164.442
        4436.497        1560.645         212.122
        8231.839        1585.959         187.907
       11192.297        1979.624         215.075
       14535.388        1860.001         121.621
       17224.315        1919.917         252.932
       20899.237        1802.853         239.356
       23731.335        1792.943         193.863
       27507.238        1603.221         192.154
       30065.602        1613.570         321.497
       33371.579        1994.991         141.001
       37099.539        1414.823         264.367
       38196.713        1837.356         131.911
       41840.942        1855.796         233.172
       43418.644        1867.336         131.256
       46734.950        1319.882         305.468
       49975.028        1831.460         358.830
       52954.322        1538.422         230.094
       55816.240        1531.934         191.867
       59004.449        1641.677         144.855
       60471.826        1510.939         229.756
       63784.513        1656.536         333.188
       67301.210        1771.228         215.292
       70381.695        1920.216         301.114
       72217.113        1448.806         140.985
       75069.462        1621.662         195.174
       78696.327        1722.356         217.841
       80000.000        1600.000           0.000
           0.000        3200.000           0.000
        3274.399        3217.174         365.439
        5160.666        3300.186         419.723
        6043.012        3262.445         208.234
        9502.865        3552.908         505.518
       11056.006        2840.019         411.736
       14606.628        2840.755         183.481
       17562.634        3511.308         265.490
       18833.142        3539.080         146.454
       22026.411        2868.051         243.112
       25600.029        2863.835         228.526
       27192.156        3106.980         475.052
       30375.600        2888.881         488.668
       33224.678        2857.386         230.758
       36841.038        3085.085         250.026
       40238.304        3524.647         264.580
       43557.179        3128.631         210.077
       46228.872        2830.415         241.076
       48146.017        3166.706         314.955
       51153.215        2952.745         216.734
       53124.514        2981.904         548.346
       56001.007        3429.944         551.764
       59307.581        3225.477         383.451
       62124.444        3154.870         247.359
       64132.610        2904.590         407.372
       67439.924        3451.420         572.731
       68998.763        3472.006         484.436
       72219.436        2879.026         243.977
       75532.535        3132.944         525.024
       78652.387        3551.841         178.617
       80000.000        3200.000           0.000
           0.000        4800.000           0.000
        1400.060        4439.660         185.870
        4786.648        4655.285         556.198
        8308.484        5116.135         600.431
       11454.778        4403.585         571.785
       14098.429        4923.032         523.820
       17912.789        5043.475         299.132
       20446.875        4859.061         286.987
       24108.597        4895.159         600.720
       27234.832        4431.193         600.250
       28696.423        4449.033         600.239
       32196.694        4589.490         600.519
       33867.228        4797.771         600.519
       34933.129        4760.558         600.519
       38067.139        5053.208         422.481
       41605.852        4581.133         428.252
       44854.687        5021.321         600.146
       48175.269        4416.823         600.161
       51163.202        5122.950         600.163
       54186.876        4703.411         600.275
       56317.818        4828.699         600.275
       59169.326        5108.954         537.592
       62536.999        4516.819         555.338
       65848.099        4445.450         600.248
       68694.276        4766.024         576.120
       71946.222        4752.098         600.159
       75433.121        5067.460         600.491
       78033.243        4664.320         208.241
       80000.000        4800.000           0.000
           0.000        6400.000           0.000
        2841.623        6773.290         226.997
        6245.685        6376.243         600.437
        7744.385        6030.238         600.430
       11368.686        6592.994         600.354
       14270.010        6704.916         592.982
       17330.427        6370.488         600.479
       19571.144        6573.041         600.474
       22641.152        6627.002         600.723
       23763.572        6012.529         600.720
       27463.089        6427.221         600.237
       30273.002        6504.167         600.237
       33884.178        6077.220         600.519
       35390.886        6255.305         600.518
       38075.664        6205.118         600.383
       40048.604        6389.405         600.382
       43255.311        6307.072         600.205
       46126.564        6231.346         600.146
       48285.057        6596.744         600.146
       51294.080        6157.575         600.163
       54250.249        6543.358         600.281
       57921.865        6224.397         592.978
       59558.312        6004.572         579.297
       62425.662        6132.109         590.980
       65724.696        6341.122         600.248
       68956.079        6674.843         600.452
       72380.520        6490.972         600.193
       75318.037        6459.550         600.491
       78160.955        6114.578         203.378
       80000.000        6400.000           0.000
           0.000        8000.000           0.000
        3576.129        8217.635         208.277
        5061.593        7652.754         317.103
        8105.944        7856.844         600.431
       11121.498        7830.817         600.354
       14531.786        8256.985         600.214
       16036.950        7761.051         600.309
       19087.239        8020.414         600.474
       22626.171        7850.784         600.572
       25653.785        8135.625         600.426
       28733.316        8014.857         600.237
       30647.917        7622.140         600.237
       31669.813        8123.016         600.237
       35544.551        8083.612         600.531
       38771.621        7743.567         600.333
       41941.639        8315.419         600.301
       44649.095        8053.831         600.170
       48005.993        8300.872         600.146
       51584.272        8303.210         600.317
       52951.115        7723.006         600.317
       55834.828        8389.314         600.318
       58839.904        7674.993         597.011
       60484.772        8202.290         599.924
       63784.723        8145.830         600.175
       67326.420        8175.747         600.452
       68571.734        8073.207         600.452
       72193.925        8373.058         600.542
       73714.578        7878.720         600.511
       77044.523        8185.581         248.125
       78448.742        7636.455         134.082
       80000.000        8000.000           0.000
           0.000        9600.000           0.000
[...]
POINT_DATA       1892
SCALARS height float 1
LOOKUP_TABLE default
     0.0
     0.0
     0.0
     0.0
     0.0
     0.0
     0.0
     0.0
     0.0
     0.0
     0.0
     0.0
     0.0
     0.0
     0.0
     0.0
     0.0
     0.0
     0.0
     0.0
     0.0
     0.0
     0.0
     0.0
     0.0
     0.0
     0.0
     0.0
     0.0
     0.0
     0.0
     0.0
     0.0
     0.0
     0.0
     0.0
     0.0
     0.0
     0.0
     0.0
     0.0
     0.0
     0.0
     0.0
     0.0
     0.0
     0.0
     0.0
     0.0
     0.0
     0.0
     0.0
   164.4
   212.1
   187.9
   215.1
   121.6
   252.9
   239.4
   193.9
   192.2
   321.5
   141.0
   264.4
   131.9
   233.2
   131.3
   305.5
   358.8
   230.1
   191.9
   144.9
   229.8
   333.2
   215.3
   301.1
   141.0
   195.2
   217.8
     0.0
     0.0
   365.4
   419.7
   208.2
   505.5
   411.7
   183.5
   265.5
   146.5
   243.1
   228.5
   475.1
   488.7
   230.8
   250.0
   264.6
   210.1
   241.1
   315.0
   216.7
   548.3
   551.8
   383.5
   247.4
   407.4
   572.7
   484.4
   244.0
   525.0
   178.6
     0.0
     0.0
   185.9
   556.2
   600.4
   571.8
   523.8
   299.1
   287.0
   600.7
   600.2
   600.2
   600.5
   600.5
   600.5
   422.5
   428.3
   600.1
   600.2
   600.2
   600.3
   600.3
   537.6
   555.3
   600.2
   576.1
   600.2
   600.5
   208.2
     0.0
     0.0
   227.0
   600.4
   600.4
   600.4
   593.0
   600.5
   600.5
   600.7
   600.7
   600.2
   600.2
   600.5
   600.5
   600.4
   600.4
   600.2
   600.1
   600.1
   600.2
   600.3
   593.0
   579.3
   591.0
   600.2
   600.5
   600.2
   600.5
   203.4
     0.0
     0.0
   208.3
   317.1
   600.4
   600.4
   600.2
   600.3
   600.5
   600.6
   600.4
   600.2
   600.2
   600.2
   600.5
   600.3
   600.3
   600.2
   600.1
   600.3
   600.3
   600.3
   597.0
   599.9
   600.2
   600.5
   600.5
   600.5
   600.5
   248.1
   134.1
     0.0
     0.0
   226.0
   600.4
   600.2
   600.2
   600.3
   600.4
   600.4
   600.4
   600.4
   600.2
   600.2
   600.2
   600.3
   600.3
   600.3
   600.3
   600.2
   600.3
   600.3
   600.3
   600.3
   600.3
   600.3
   600.4
   600.5
   600.5
   600.4
   600.3
   265.9
     0.0
     0.0
   349.9
   600.2
   600.2
   600.3
   600.3
   600.4
   600.4
   600.4
   600.3
   600.2
   600.3
   600.3
   600.3
   600.3
   600.3
   600.3
   600.3
   600.3
   600.4
   600.3
   600.3
   600.3
   600.3
   600.3
   600.5
   600.4
   600.4
   600.4
   600.3
   199.3
     0.0
     0.0
   395.8
   600.2
   600.2
   600.2
   600.3
   600.3
   600.3
   600.2
   600.4
   600.4
   600.3
   600.3
   600.3
   600.3
   600.3
   600.5
   600.3
   600.3
   600.3
   600.2
   600.2
   600.2
   600.3
   600.3
   600.3
   600.4
   600.3
   600.4
   600.4
   600.3
   600.3
   309.5
     0.0
     0.0
   147.2
   293.5
   600.2
   600.2
   600.3
   600.3
   600.2
   600.2
   600.4
   600.4
   600.0
   600.3
   600.5
   600.5
   600.5
   600.3
   600.3
   600.2
   600.2
   600.2
   600.3
   600.3
   600.4
   600.3
   600.3
   600.4
   600.3
   334.4
     0.0
     0.0
   223.0
   600.2
   600.2
   600.3
   600.3
   600.2
   600.4
   600.4
   600.4
   600.4
   600.3
   600.3
   600.3
   600.3
   600.5
   600.3
   600.3
   600.2
   600.2
   600.3
   600.3
   600.3
   600.3
   600.3
   600.3
   600.2
   600.2
   600.2
   241.4
     0.0
     0.0
   323.9
   600.4
   600.4
   600.3
   600.3
   600.3
   600.4
   600.4
   600.4
   600.4
   600.3
   600.3
   600.3
   600.3
   600.2
   600.2
   600.3
   600.3
   600.2
   600.2
   600.3
   600.3
   600.3
   600.3
   600.3
   600.2
   600.5
   204.9
     0.0
     0.0
   345.8
   600.4
   600.4
   600.4
   600.5
   600.3
   600.3
   600.4
   600.4
   600.4
   600.3
   600.3
   600.3
   600.3
   600.2
   600.2
   600.3
   600.3
   600.3
   600.2
   600.3
   600.3
   600.3
   600.3
   600.3
   600.2
   600.5
   338.4
     0.0
     0.0
   222.5
   600.4
   600.5
   600.5
   600.5
   600.3
   600.3
   600.4
   600.4
   600.4
   600.4
   600.3
   600.3
   600.4
   600.2
   600.3
   600.3
   600.3
   600.3
   600.3
   600.2
   600.3
   600.3
   600.3
   600.3
   600.2
   600.5
   600.5
   209.6
     0.0
     0.0
   265.8
   600.6
   600.4
   600.5
   600.3
   600.3
   600.4
   600.4
   600.4
   600.3
   600.5
   600.3
   600.3
   600.5
   600.4
   600.1
   600.1
   600.4
   600.3
   600.1
   600.1
   600.5
   600.3
   600.3
   600.3
   600.3
   600.5
   600.5
   175.8
     0.0
     0.0
   254.6
   600.6
   600.4
   600.4
   600.5
   600.3
   600.3
   600.4
   600.4
   600.3
   600.3
   600.3
   600.3
   600.3
   600.4
   600.2
   600.3
   600.3
   600.4
   600.4
   600.4
   600.1
   600.1
   600.2
   600.4
   600.3
   600.3
   600.3
   599.2
   196.4
     0.0
     0.0
   230.1
   600.5
   600.4
   600.4
   600.5
   600.5
   600.3
   600.6
   600.6
   600.3
   600.3
   600.3
   600.5
   600.3
   600.3
   600.2
   600.3
   600.3
   600.3
   600.3
   600.4
   600.1
   600.1
   600.4
   600.4
   600.3
   600.3
   600.3
   579.5
   194.2
     0.0
     0.0
   189.2
   600.5
   600.5
   600.3
   600.5
   600.3
   600.3
   600.2
   600.6
   600.4
   600.3
   600.3
   600.5
   600.3
   600.4
   600.3
   600.3
   600.3
   600.3
   600.3
   600.1
   600.1
   600.5
   600.3
   600.3
   600.3
   600.3
   355.5
     0.0
     0.0
   316.8
   339.5
   600.3
   600.3
   600.3
   600.3
   600.2
   600.4
   600.4
   600.3
   600.3
   600.5
   600.4
   600.4
   600.3
   600.2
   600.3
   600.4
   600.1
   600.1
   600.1
   600.3
   600.2
   600.2
   600.2
   600.3
   176.7
     0.0
     0.0
   354.2
   278.4
   600.3
   600.3
   600.3
   600.3
   600.3
   600.2
   600.4
   600.4
   600.3
   600.5
   600.4
   600.3
   600.3
   600.3
   600.4
   600.3
   600.1
   600.3
   600.3
   600.1
   600.3
   600.3
   600.2
   600.3
   600.3
   600.3
   279.1
     0.0
     0.0
   155.1
   285.8
   600.4
   600.3
   600.3
   600.2
   600.2
   600.2
   600.2
   600.3
   600.3
   600.3
   600.5
   600.5
   600.3
   600.3
   600.3
   600.4
   600.3
   600.3
   600.3
   600.3
   600.3
   600.3
   600.3
   600.3
   600.3
   600.2
   600.3
   218.8
     0.0
     0.0
   180.3
   578.3
   600.3
   600.3
   600.3
   600.3
   600.4
   600.3
   600.3
   600.3
   600.3
   600.3
   600.5
   600.3
   600.3
   600.4
   600.4
   600.4
   600.4
   600.3
   600.4
   600.3
   600.3
   600.3
   600.3
   600.3
   600.2
   600.3
   153.0
     0.0
     0.0
   255.4
   571.2
   600.3
   600.3
   600.3
   600.4
   600.4
   600.3
   600.2
   600.2
   600.5
   600.5
   600.3
   600.4
   600.4
   600.4
   600.4
   600.3
   600.3
   600.3
   600.3
   600.3
   600.4
   600.3
   600.4
   600.4
   600.3
   559.2
   237.3
     0.0
     0.0
   309.9
   582.4
   600.4
   600.3
   600.4
   600.3
   600.4
   600.3
   600.2
   600.2
   600.5
   600.5
   600.3
   600.4
   600.4
   600.3
   600.4
   600.4
   600.3
   600.3
   600.4
   600.3
   600.1
   600.4
   600.4
   600.3
   600.3
   168.0
     0.0
     0.0
   222.5
   600.3
   600.3
   600.3
   600.4
   600.3
   600.2
   600.3
   600.4
   600.4
   600.5
   600.3
   600.5
   600.2
   600.3
   600.4
   600.4
   600.3
   600.4
   600.4
   600.4
   600.1
   600.4
   600.4
   600.3
   587.5
   508.6
     0.0
     0.0
   250.4
   600.3
   600.3
   600.4
   600.4
   600.4
   600.3
   600.3
   600.4
   600.4
   600.4
   600.5
   600.4
   600.4
   600.4
   600.4
   600.4
   600.2
   600.4
   600.2
   600.4
   600.4
   600.4
   600.4
   600.3
   600.3
   600.4
   600.4
   598.9
   195.8
     0.0
     0.0
   344.7
   600.3
   600.3
   600.3
   600.4
   600.3
   600.3
   600.3
   600.3
   600.3
   600.4
   600.5
   600.4
   600.4
   600.4
   600.4
   600.2
   600.2
   600.2
   600.2
   600.4
   600.4
   600.4
   600.3
   600.3
   600.5
   600.5
   600.2
   185.1
     0.0
     0.0
   167.7
   308.6
   600.3
   600.3
   600.5
   600.4
   600.3
   600.3
   600.3
   600.4
   600.5
   600.4
   600.4
   600.4
   600.5
   600.3
   600.3
   600.3
   600.3
   600.3
   600.3
   600.3
   600.4
   600.4
   600.4
   600.4
   600.5
   377.4
   290.1
     0.0
     0.0
   226.5
   600.2
   600.2
   600.5
   600.4
   600.3
   600.3
   600.3
   600.5
   600.5
   600.5
   600.4
   600.4
   600.4
   600.4
   600.4
   600.3
   600.3
   600.4
   600.3
   600.3
   600.3
   600.3
   600.3
   600.3
   600.3
   600.4
   600.3
   383.6
   274.8
   154.4
     0.0
     0.0
    97.9
   524.1
   600.2
   600.5
   600.5
   600.3
   600.3
   600.3
   600.3
   600.5
   600.5
   600.4
   600.4
   600.4
   600.4
   600.4
   600.3
   600.3
   600.3
   600.3
   600.3
   600.3
   600.4
   600.3
   600.3
   600.3
   600.3
   600.3
   600.3
   600.3
   239.6
     0.0
     0.0
   252.2
   600.0
   600.3
   600.5
   600.3
   600.4
   600.4
   600.5
   600.4
   600.4
   600.4
   600.5
   600.3
   600.3
   600.3
   600.4
   600.4
   600.4
   600.2
   600.2
   600.4
   600.3
   600.2
   600.3
   600.3
   237.5
     0.0
     0.0
   185.9
   600.4
   600.3
   600.3
   600.2
   600.3
   600.4
   600.4
   600.4
   600.3
   600.4
   600.4
   600.2
   600.2
   600.3
   600.3
   600.3
   600.4
   600.4
   600.4
   600.4
   600.5
   600.2
   600.4
   600.4
   600.2
   600.4
   600.3
   321.1
     0.0
     0.0
   269.2
   600.3
   600.3
   600.3
   600.2
   600.3
   600.4
   600.4
   600.4
   600.3
   600.4
   600.4
   600.4
   600.3
   600.3
   600.4
   600.4
   600.4
   600.4
   600.4
   600.5
   600.1
   600.2
   600.4
   600.2
   600.3
   600.3
   251.3
     0.0
     0.0
   112.2
   491.1
   572.6
   600.3
   600.3
   600.3
   600.1
   600.1
   600.3
   600.4
   600.4
   600.4
   600.4
   600.4
   600.4
   600.2
   600.4
   600.4
   600.4
   600.4
   600.2
   600.3
   600.3
   600.3
   600.4
   600.3
   600.3
   600.3
   600.2
   308.9
     0.0
     0.0
   250.0
   596.4
   600.4
   600.3
   600.3
   600.1
   600.1
   600.2
   600.3
   600.4
   600.4
   600.4
   600.4
   600.3
   600.3
   600.4
   600.3
   600.4
   600.4
   600.5
   600.2
   600.3
   600.2
   600.3
   600.3
   600.3
   386.6
   205.2
   100.6
     0.0
     0.0
   268.5
   600.4
   600.4
   600.3
   600.3
   600.1
   600.2
   600.2
   600.3
   600.4
   600.4
   600.5
   600.3
   600.3
   600.3
   600.3
   600.4
   600.3
   600.4
   600.1
   600.3
   600.3
   600.3
   600.2
   600.3
   600.3
   600.4
   326.6
   284.8
     0.0
     0.0
   196.5
   600.4
   600.4
   600.4
   600.3
   600.2
   600.1
   600.2
   600.2
   600.3
   600.4
   600.2
   600.5
   600.3
   600.3
   600.3
   600.3
   600.1
   600.1
   600.3
   600.3
   600.3
   600.4
   600.3
   600.3
   600.3
   432.8
   243.9
     0.0
     0.0
   302.1
   600.4
   600.4
   600.3
   600.3
   600.1
   600.2
   600.3
   600.3
   600.4
   600.2
   600.3
   600.3
   600.2
   600.2
   600.3
   600.2
   600.2
   600.2
   600.2
   600.3
   600.3
   600.4
   600.4
   600.6
   600.3
   600.3
   600.5
   241.7
     0.0
     0.0
   147.3
   583.1
   600.4
   600.4
   600.4
   600.3
   600.3
   600.2
   600.2
   600.1
   600.2
   600.2
   600.2
   600.2
   600.3
   600.2
   600.2
   600.2
   600.3
   600.2
   600.1
   600.3
   600.4
   600.4
   600.6
   600.3
   600.3
   600.5
   335.8
   300.3
     0.0
     0.0
   279.3
   600.4
   600.4
   600.4
   600.3
   600.3
   600.2
   600.2
   600.1
   600.2
   600.2
   600.2
   600.2
   600.2
   600.4
   600.4
   600.4
   600.4
   600.3
   600.3
   600.1
   600.4
   600.3
   600.3
   600.3
   600.3
   600.4
   262.3
   125.1
     0.0
     0.0
   127.3
   336.2
   600.4
   600.4
   600.3
   600.3
   600.4
   600.2
   600.2
   600.2
   600.2
   600.5
   600.2
   600.2
   600.2
   600.4
   600.4
   600.4
   600.3
   600.3
   600.1
   600.3
   600.3
   600.3
   600.3
   600.5
   600.4
   600.4
   600.4
   242.7
     0.0
     0.0
   204.2
   600.4
   600.4
   600.4
   600.3
   600.4
   600.2
   600.2
   600.2
   600.5
   600.5
   600.2
   600.2
   600.4
   600.4
   600.4
   600.3
   600.3
   600.3
   600.2
   600.3
   600.3
   600.3
   600.3
   600.4
   600.5
   600.4
   600.4
   277.5
     0.0
     0.0
   210.8
   407.3
   600.4
   600.4
   600.3
   600.3
   600.3
   600.2
   600.2
   600.2
   600.5
   600.5
   600.5
   600.3
   600.3
   600.4
   600.4
   600.5
   600.3
   600.3
   600.3
   600.3
   600.4
   600.4
   600.4
   600.4
   600.4
   600.4
   600.4
   163.5
     0.0
     0.0
   235.4
   600.3
   600.3
   600.3
   600.3
   600.3
   600.3
   600.3
   600.2
   600.4
   600.4
   600.5
   600.3
   600.3
   600.3
   600.3
   600.5
   600.3
   600.3
   600.3
   600.3
   600.3
   600.2
   600.4
   600.4
   600.4
   600.4
   600.4
   573.1
     0.0
     0.0
   402.5
   600.3
   600.3
   600.3
   600.3
   600.3
   600.3
   600.3
   600.1
   600.1
   600.4
   600.6
   600.6
   600.3
   600.3
   600.3
   600.3
   600.3
   600.3
   600.4
   600.3
   600.2
   600.4
   600.3
   600.5
   600.5
   600.4
   560.8
   183.9
     0.0
     0.0
   336.5
   600.3
   600.3
   600.3
   600.3
   600.3
   600.3
   600.3
   600.3
   600.1
   600.4
   600.4
   600.6
   600.3
   600.3
   600.3
   600.3
   600.3
   600.4
   600.4
   600.3
   600.2
   600.4
   600.3
   600.3
   600.4
   600.4
   600.4
   206.9
     0.0
     0.0
   186.1
   600.3
   600.3
   600.6
   600.3
   600.3
   600.3
   600.3
   355.3
   600.4
   600.5
   600.5
   600.3
   600.3
   600.4
   600.4
   597.3
   600.4
   600.4
   600.4
   600.2
   600.4
   600.4
   600.3
   600.3
   600.4
   600.4
   391.0
   243.0
     0.0
     0.0
   241.5
   369.0
   296.4
   590.0
   494.5
   600.6
   564.1
   600.3
   600.3
   214.9
   362.0
   464.2
   582.7
   600.3
   600.3
   495.2
   597.7
   564.5
   475.7
   600.4
   600.3
   558.4
   600.3
   560.8
   600.3
   600.3
   600.4
   564.2
   330.7
   243.4
     0.0
     0.0
   307.1
   149.3
   456.0
   185.8
   542.1
   482.5
   432.3
   200.9
   297.1
   507.7
   139.9
   165.5
   273.5
   370.7
   290.3
   500.9
   481.4
   518.3
   242.6
   353.0
   153.6
   515.6
   540.7
   372.3
   541.2
   357.4
   287.4
   530.6
   561.8
   154.7
   249.3
   304.8
     0.0
     0.0
   326.8
   263.4
   186.2
   256.9
   160.1
   232.8
   163.2
   219.0
    97.7
   261.6
   210.5
   177.1
   184.6
   204.1
   123.8
   253.6
   226.2
   133.0
   149.1
   205.4
   150.1
   159.0
   163.7
   195.1
   268.5
   340.1
   172.7
     0.0
     0.0
     0.0
     0.0
     0.0
     0.0
     0.0
     0.0
     0.0
     0.0
     0.0
     0.0
     0.0
     0.0
     0.0
     0.0
     0.0
     0.0
     0.0
     0.0
     0.0
     0.0
     0.0
     0.0
     0.0
     0.0
     0.0
     0.0
     0.0
     0.0
     0.0
     0.0
     0.0
     0.0
     0.0
     0.0
     0.0
     0.0
     0.0
     0.0
     0.0
     0.0
     0.0
     0.0
     0.0
     0.0
     0.0
     0.0
     0.0
     0.0
     0.0
     0.0
   312.5
   591.8
   600.5
   600.5
   598.7
   600.4
   600.2
   600.3
   600.3
   600.3
   600.3
   600.4
   600.4
   600.3
   600.3
   600.1
   382.4
   600.3
   600.3
   600.3
   600.4
   600.4
   600.2
   600.3
   600.4
   600.2
   600.2
   600.3
   600.3
   600.4
   600.3
   600.2
   600.2
   600.4
   600.3
   600.2
   600.4
   600.3
   590.5
   600.4
    80.6
   139.5
    54.8
    60.9
   187.5
   102.2
    96.9
    83.6
    95.1
    69.1
   112.7
    97.9
   112.1
   113.1
   139.3
    96.3
   118.3
    87.8
    93.8
   100.9
   105.5
   159.4
    93.8
   167.5
   129.6
   150.6
   102.9
   133.4
    82.3
   136.6
   171.7
    97.3
   106.6
   111.4
    80.1
    82.5
   140.9
   174.9
   125.0
    78.0
   119.2
   152.8
   103.4
   110.0
   155.6
    97.2
   138.6
    99.5
    72.4
   102.2
   108.5
   158.9
   110.7
   133.3
   103.5
   127.9
   122.9
    84.8
   119.2
   112.3
    89.6
   122.2
    98.9
    88.7
   152.3
   145.8
    88.1
    83.2
   133.1
   113.8
   141.5
    75.7
    82.9
    85.6
    74.5
   122.7
    71.9
   128.9
    72.1
   142.6
   144.3
   112.6
    88.8
    67.3
    48.3
   119.2
   101.3
    80.8
    85.3
   134.8
    79.1
   132.2
   177.0
   116.6
   114.9
   128.2
   104.2
    49.6
   146.3
    62.2
   597.1
   600.4
   600.7
   600.1
   600.6
   600.6
   600.5
   600.6
   600.3
   600.3
   600.4
   600.2
   600.3
   600.4
   600.3
   600.3
   600.3
   532.9
   600.3
   600.2
   600.3
   600.4
   600.3
   600.5
   600.5
   600.1
   600.2
   600.5
   600.4
   600.4
   600.4
   600.3
   600.4
   600.3
   600.3
   600.4
   600.4
   600.5
   600.2
   600.1
   484.6
   600.1
   600.3
   600.3
   600.3
   600.2
   600.3
   600.6
   600.3
   600.3
   600.3
   456.6
   600.2
   600.1
   520.8
   600.2
   600.3
   600.3
   600.4
   600.5
   600.3
   600.3
   600.4
   600.4
   598.4
   600.3
   572.9
   530.4
   506.7
   478.3
   600.4
   600.3
   600.2
   600.3
   600.3
   600.3
   600.3
   600.3
   600.7
   600.1
   600.6
   600.4
   600.2
   600.3
   575.3
   600.2
   600.3
   600.3
   600.4
   600.1
   600.2
   600.4
   600.4
   600.3
   600.2
   600.3
   600.3
   600.2
   600.6
   600.3
   600.2
   600.1
   600.2
   600.3
   578.0
   600.3
   600.3
   600.3
   600.3
   350.7
    93.2
   600.4
   380.3
   266.2
   334.4
   323.6
   313.8
   309.1
   600.4
   600.3
   600.4
   251.0
   281.5
   261.7
   266.0
   295.3
   279.9
   359.6
   349.2
   344.0
   361.6
   350.7
SCALARS discharge float 1
LOOKUP_TABLE default
  0.1002E+05
  0.1892E+07
  0.1376E+08
  0.2005E+07
  0.1795E+08
  0.1206E+07
  0.2057E+08
  0.1445E+07
  0.3355E+07
  0.1349E+07
  0.3068E+08
  0.2289E+07
  0.3003E+08
  0.1431E+07
  0.1772E+08
  0.2160E+07
  0.1234E+08
  0.1879E+07
  0.7096E+07
  0.1345E+07
  0.2236E+08
  0.2104E+07
  0.5015E+07
  0.1126E+07
  0.1806E+07
  0.2774E+08
  0.2110E+07
  0.5313E+07
  0.2455E+08
  0.1452E+07
  0.1038E+08
  0.1859E+07
  0.1091E+08
  0.1753E+07
  0.7970E+07
  0.1063E+07
  0.4036E+08
  0.4281E+07
  0.1760E+07
  0.1054E+08
  0.1202E+07
  0.3537E+08
  0.1140E+07
  0.1328E+08
  0.1403E+08
  0.8886E+06
  0.2007E+07
  0.1047E+07
  0.1029E+08
  0.1117E+07
  0.7196E+04
  0.3317E+05
  0.7447E+07
  0.3141E+07
  0.4534E+07
  0.6844E+07
  0.2492E+08
  0.2103E+07
  0.3057E+07
  0.4855E+07
  0.4265E+07
  0.1453E+07
  0.9876E+07
  0.2112E+07
  0.1587E+08
  0.2984E+07
  0.1317E+08
  0.6782E+06
  0.9550E+06
  0.5433E+07
  0.7707E+07
  0.2961E+08
  0.2450E+07
  0.9384E+06
  0.6014E+07
  0.1725E+07
  0.1177E+08
  0.7172E+07
  0.2655E+07
  0.7610E+04
  0.3244E+05
  0.2469E+07
  0.3120E+07
  0.8789E+07
  0.3110E+07
  0.4183E+07
  0.2062E+08
  0.4521E+07
  0.2325E+08
  0.4823E+07
  0.4826E+07
  0.2211E+07
  0.2864E+07
  0.3373E+07
  0.1040E+08
  0.6036E+07
  0.1090E+08
  0.5645E+07
  0.2456E+07
  0.7047E+07
  0.2673E+07
  0.1944E+07
  0.2459E+08
  0.6157E+07
  0.2285E+08
  0.9419E+06
  0.5983E+07
  0.8563E+07
  0.2246E+07
  0.3986E+07
  0.2670E+07
  0.1910E+05
  0.6395E+07
  0.1776E+07
  0.5939E+06
  0.1694E+07
  0.1044E+08
  0.5067E+07
  0.8873E+07
  0.9811E+06
  0.2549E+07
  0.1152E+08
  0.2572E+07
  0.3959E+07
  0.5498E+07
  0.4544E+07
  0.2352E+07
  0.1996E+07
  0.2769E+07
  0.2036E+07
  0.1704E+08
  0.7664E+07
  0.1927E+08
  0.1876E+08
  0.1076E+08
  0.3812E+07
  0.1144E+08
  0.5091E+07
  0.3596E+07
  0.1238E+08
  0.1524E+08
  0.5102E+07
  0.1572E+07
  0.2223E+08
  0.9909E+07
  0.3668E+07
  0.1406E+07
  0.3766E+07
  0.1294E+07
  0.1284E+08
  0.2876E+07
  0.3921E+07
  0.3447E+07
  0.1869E+08
  0.2668E+07
  0.1211E+08
  0.2772E+07
  0.7940E+07
  0.2799E+08
  0.8383E+07
  0.2186E+07
  0.3024E+07
  0.1298E+08
  0.1261E+08
  0.4955E+07
  0.4925E+07
  0.2364E+07
  0.9955E+06
  0.4768E+07
  0.9074E+07
  0.1433E+08
  0.1004E+08
  0.7503E+07
  0.9415E+07
  0.2607E+07
  0.2127E+07
  0.3532E+07
  0.1321E+08
  0.1089E+08
  0.2276E+07
  0.1387E+08
  0.4471E+08
  0.1566E+08
  0.3901E+07
  0.3847E+07
  0.2198E+07
  0.1602E+08
  0.4107E+07
  0.1226E+07
  0.2896E+07
  0.4333E+07
  0.8609E+07
  0.3860E+07
  0.4480E+07
  0.3277E+07
  0.1009E+08
  0.1630E+07
  0.8310E+07
  0.6924E+07
  0.9057E+07
  0.1351E+07
  0.3264E+05
  0.8297E+07
  0.1579E+07
  0.5160E+07
  0.1159E+08
  0.1267E+08
  0.2031E+07
  0.3031E+07
  0.9126E+07
  0.1814E+08
  0.4085E+07
  0.8148E+07
  0.3975E+07
  0.2869E+07
  0.1565E+08
  0.2710E+07
  0.1121E+08
  0.3789E+07