# vtk DataFile Version 3.0
Landscape
ASCII
DATASET UNSTRUCTURED_GRID
POINTS       2189 float
           0.000           0.000           0.000
        1600.000           0.000           0.000
        3200.000           0.000           0.000
        4800.000           0.000           0.000
        6400.000           0.000           0.000
        8000.000           0.000           0.000
        9600.000           0.000           0.000
       11200.000           0.000           0.000
       12800.000           0.000           0.000
       14400.001           0.000           0.000
       16000.000           0.000           0.000
       17600.000           0.000           0.000
       19200.000           0.000           0.000
       20799.999           0.000           0.000
       22400.000           0.000           0.000
       24000.001           0.000           0.000
       25599.999           0.000           0.000
       27200.000           0.000           0.000
       28800.001           0.000           0.000
       30400.000           0.000           0.000
       32000.000           0.000           0.000
       33599.999           0.000           0.000
       35200.000           0.000           0.000
       36800.001           0.000           0.000
       38399.999           0.000           0.000
       40000.000           0.000           0.000
       41599.998           0.000           0.000
       43200.002           0.000           0.000
       44800.000           0.000           0.000
       46399.999           0.000           0.000
       48000.002           0.000           0.000
       49600.000           0.000           0.000
       51199.999           0.000           0.000
       52800.002           0.000           0.000
       54400.001           0.000           0.000
       55999.999           0.000           0.000
       57600.002           0.000           0.000
       59200.001           0.000           0.000
       60799.999           0.000           0.000
       62399.998           0.000           0.000
       64000.001           0.000           0.000
       65599.999           0.000           0.000
       67199.998           0.000           0.000
       68800.001           0.000           0.000
       70400.000           0.000           0.000
       71999.998           0.000           0.000
       73600.001           0.000           0.000
       75200.000           0.000           0.000
       76799.998           0.000           0.000
       78400.002           0.000           0.000
       80000.000           0.000           0.000
           0.000        1600.000           0.000
        1820.535        1836.129         177.353
        4436.497        1560.645         231.539
        8231.839        1585.959         200.965
       11192.297        1979.624         139.859
       14535.388        1860.001          64.180
       17224.315        1919.917         361.751
       20899.237        1802.853         291.618
       23731.335        1792.943         207.954
       27507.238        1603.221         217.502
       30065.602        1613.570         358.943
       33371.579        1994.991          47.604
       37099.539        1414.823         346.095
       38196.713        1837.356          82.033
       41840.942        1855.796         336.596
       43418.644        1867.336          60.531
       49975.028        1831.460         293.554
       52954.322        1538.422         129.418
       55816.240        1531.934         170.647
       59004.449        1641.677          44.633
       60471.826        1510.939         305.024
       63784.513        1656.536         274.460
       67301.210        1771.228         127.274
       70381.695        1920.216         315.677
       72217.113        1448.806          89.533
       75069.462        1621.662         161.321
       78696.327        1722.356         246.787
       80000.000        1600.000           0.000
           0.000        3200.000           0.000
        3274.399        3217.174         458.692
        5160.666        3300.186         257.494
        6043.012        3262.445         124.451
        9502.865        3552.908         323.038
       11056.006        2840.019         204.670
       14606.628        2840.755          92.261
       17562.634        3511.308         245.211
       18833.142        3539.080          72.904
       22026.411        2868.051         269.521
       25600.029        2863.835         103.398
       27192.156        3106.980         348.284
       30375.600        2888.881         245.814
       33224.678        2857.386          66.580
       36841.038        3085.085         148.166
       40238.304        3524.647          98.209
       43557.179        3128.631          96.855
       46228.872        2830.415         146.749
       48146.017        3166.706         369.060
       51153.215        2952.745          74.099
       53124.514        2981.904         236.855
       56001.007        3429.944         454.605
       59307.581        3225.477          79.481
       62124.444        3154.870         320.410
       64132.610        2904.590          95.847
       67439.924        3451.420         518.462
       68998.763        3472.006         165.282
       72219.436        2879.026         148.807
       75532.535        3132.944         368.604
       78652.387        3551.841         173.789
       80000.000        3200.000           0.000
           0.000        4800.000           0.000
        1400.060        4439.660         183.169
        4786.648        4655.285         509.522
       11454.778        4403.585         373.837
       14098.429        4923.032         166.837
       17912.789        5043.475         146.341
       20446.875        4859.061         133.863
       24108.597        4895.159         463.926
       27234.832        4431.193         282.207
       28696.423        4449.033         642.586
       32196.694        4589.490         114.741
       33867.228        4797.771         488.902
       34933.129        4760.558         549.874
       38067.139        5053.208         439.565
       41605.852        4581.133         370.123
       44854.687        5021.321         495.578
       48175.269        4416.823         421.155
       51163.202        5122.950         140.846
       54186.876        4703.411         516.454
       56317.818        4828.699         417.938
       59169.326        5108.954         125.871
       62536.999        4516.819         175.919
       65848.099        4445.450         322.502
       68694.276        4766.024         244.675
       71946.222        4752.098         258.504
       75433.121        5067.460         611.973
       78033.243        4664.320         189.341
       80000.000        4800.000           0.000
           0.000        6400.000           0.000
        2841.623        6773.290         235.291
        6245.685        6376.243         508.349
        7744.385        6030.238         328.574
       11368.686        6592.994         421.098
       14270.010        6704.916         349.846
       17330.427        6370.488         224.409
       19571.144        6573.041         319.157
       22641.152        6627.002         610.406
       23763.572        6012.529         526.398
       27463.089        6427.221         604.496
       30273.002        6504.167         357.245
       33884.178        6077.220         360.786
       35390.886        6255.305         330.018
       38075.664        6205.118         661.755
       40048.604        6389.405         199.249
       43255.311        6307.072         241.687
       46126.564        6231.346         490.452
       48285.057        6596.744         444.678
       51294.080        6157.575         185.422
       54250.249        6543.358         813.311
       57921.865        6224.397         242.255
       59558.312        6004.572         154.659
       62425.662        6132.109         243.767
       65724.696        6341.122         522.289
       68956.079        6674.843         536.299
       72380.520        6490.972         496.546
       75318.037        6459.550         579.653
       78160.955        6114.578         220.643
       80000.000        6400.000           0.000
           0.000        8000.000           0.000
        3576.129        8217.635         206.682
        5061.593        7652.754         314.298
        8105.944        7856.844         557.648
       11121.498        7830.817         636.271
       14531.786        8256.985         624.035
       16036.950        7761.051         518.616
       19087.239        8020.414         523.043
       22626.171        7850.784         518.815
       25653.785        8135.625         701.300
       28733.316        8014.857         564.681
       30647.917        7622.140         229.415
       31669.813        8123.016         471.917
       35544.551        8083.612         474.405
       38771.621        7743.567         309.716
       41941.639        8315.419         683.594
       44649.095        8053.831         442.081
       48005.993        8300.872         697.635
       51584.272        8303.210         593.100
       52951.115        7723.006         536.266
       55834.828        8389.314         613.268
       58839.904        7674.993         223.946
       60484.772        8202.290         564.699
       63784.723        8145.830         387.217
       67326.420        8175.747         839.512
       68571.734        8073.207         838.433
       72193.925        8373.058         771.621
       73714.578        7878.720         467.295
       77044.523        8185.581         155.344
       78448.742        7636.455          84.964
       80000.000        8000.000           0.000
           0.000        9600.000           0.000
        3060.393        9702.503         101.002
        6737.398        9989.628         253.304
[...]
POINT_DATA       2189
SCALARS height float 1
LOOKUP_TABLE default
     0.0
     0.0
     0.0
     0.0
     0.0
     0.0
     0.0
     0.0
     0.0
     0.0
     0.0
     0.0
     0.0
     0.0
     0.0
     0.0
     0.0
     0.0
     0.0
     0.0
     0.0
     0.0
     0.0
     0.0
     0.0
     0.0
     0.0
     0.0
     0.0
     0.0
     0.0
     0.0
     0.0
     0.0
     0.0
     0.0
     0.0
     0.0
     0.0
     0.0
     0.0
     0.0
     0.0
     0.0
     0.0
     0.0
     0.0
     0.0
     0.0
     0.0
     0.0
     0.0
   177.4
   231.5
   201.0
   139.9
    64.2
   361.8
   291.6
   208.0
   217.5
   358.9
    47.6
   346.1
    82.0
   336.6
    60.5
   293.6
   129.4
   170.6
    44.6
   305.0
   274.5
   127.3
   315.7
    89.5
   161.3
   246.8
     0.0
     0.0
   458.7
   257.5
   124.5
   323.0
   204.7
    92.3
   245.2
    72.9
   269.5
   103.4
   348.3
   245.8
    66.6
   148.2
    98.2
    96.9
   146.7
   369.1
    74.1
   236.9
   454.6
    79.5
   320.4
    95.8
   518.5
   165.3
   148.8
   368.6
   173.8
     0.0
     0.0
   183.2
   509.5
   373.8
   166.8
   146.3
   133.9
   463.9
   282.2
   642.6
   114.7
   488.9
   549.9
   439.6
   370.1
   495.6
   421.2
   140.8
   516.5
   417.9
   125.9
   175.9
   322.5
   244.7
   258.5
   612.0
   189.3
     0.0
     0.0
   235.3
   508.3
   328.6
   421.1
   349.8
   224.4
   319.2
   610.4
   526.4
   604.5
   357.2
   360.8
   330.0
   661.8
   199.2
   241.7
   490.5
   444.7
   185.4
   813.3
   242.3
   154.7
   243.8
   522.3
   536.3
   496.5
   579.7
   220.6
     0.0
     0.0
   206.7
   314.3
   557.6
   636.3
   624.0
   518.6
   523.0
   518.8
   701.3
   564.7
   229.4
   471.9
   474.4
   309.7
   683.6
   442.1
   697.6
   593.1
   536.3
   613.3
   223.9
   564.7
   387.2
   839.5
   838.4
   771.6
   467.3
   155.3
    85.0
     0.0
     0.0
   101.0
   253.3
   748.4
   533.1
   871.8
   838.1
   806.5
   919.0
  1029.1
   764.3
   325.5
   939.3
   713.5
   494.3
   715.8
   947.0
   593.4
  1025.4
   691.9
   913.5
   995.0
   519.9
   799.0
   888.9
   947.5
  1141.5
   975.8
   435.6
   274.0
     0.0
     0.0
   388.1
   461.4
   577.9
   975.7
  1058.8
  1096.0
   876.6
  1107.1
  1004.1
   487.8
  1102.3
   890.6
   866.6
   990.7
   955.1
   974.3
  1153.2
   968.8
  1124.6
   946.9
   776.6
   488.0
   883.5
   949.2
  1142.8
   775.2
   688.5
   704.5
   533.1
   179.1
     0.0
     0.0
   536.0
   596.7
   664.6
   864.2
   994.1
  1135.7
  1183.7
  1200.2
  1166.8
  1200.4
  1139.6
   964.3
   964.2
  1160.9
  1107.8
  1135.1
  1193.7
  1111.2
  1131.3
  1127.0
  1200.2
  1200.2
   868.5
   746.4
  1025.9
  1126.9
  1156.8
   834.1
   609.3
   243.8
   159.4
    95.4
     0.0
     0.0
   131.5
   264.8
   343.6
   493.8
   881.1
  1187.1
  1200.2
  1200.2
  1200.4
  1147.2
  1121.3
  1200.3
  1200.5
  1200.5
  1200.5
  1194.6
  1191.1
  1200.2
  1200.2
  1200.2
  1200.3
   960.9
  1200.3
  1198.1
  1172.2
   738.4
   599.2
   314.1
     0.0
     0.0
    89.1
   185.6
   361.2
   954.4
  1200.3
  1200.2
  1200.4
  1200.4
  1200.4
  1200.4
  1200.3
  1200.3
  1200.3
  1200.3
  1200.5
  1200.3
  1200.3
  1200.2
  1200.2
  1200.3
  1200.3
  1200.3
  1200.3
  1198.0
  1168.4
   859.1
   652.7
   239.3
   309.2
     0.0
     0.0
   333.3
   533.4
   846.5
   990.9
  1200.3
  1200.3
  1200.4
  1200.4
  1200.4
  1200.4
  1200.3
  1200.3
  1200.3
  1200.3
  1200.2
  1200.2
  1200.3
  1200.3
  1200.2
  1200.2
  1200.3
  1200.3
  1200.3
  1200.2
   848.0
   757.7
   421.4
    66.9
     0.0
     0.0
   448.3
   249.9
   556.9
   695.0
  1063.3
  1200.3
  1200.3
  1200.4
  1200.4
  1200.4
  1200.3
  1200.3
  1200.3
  1200.3
  1200.2
  1200.2
  1200.3
  1200.3
  1200.3
  1200.2
  1200.3
  1200.3
  1200.3
  1159.2
  1035.2
   421.5
   172.9
   336.7
     0.0
     0.0
    73.6
   158.5
   457.8
   768.0
   977.7
  1200.3
  1200.3
  1200.4
  1200.4
  1200.4
  1200.4
  1200.3
  1200.3
  1200.4
  1200.1
  1200.3
  1200.3
  1200.3
  1200.3
  1200.3
  1200.2
  1200.3
  1200.3
  1200.3
   881.7
   668.8
   516.8
   525.2
   251.3
     0.0
     0.0
   295.8
   282.9
   514.7
   884.8
  1200.3
  1200.3
  1200.3
  1200.4
  1200.4
  1200.3
  1200.4
  1200.4
  1200.4
  1200.4
  1200.4
  1200.1
  1200.1
  1200.4
  1200.3
  1200.1
  1200.1
  1200.4
  1200.3
  1200.3
  1101.4
   886.9
   526.3
   349.2
   110.0
     0.0
     0.0
   236.1
   498.2
   768.1
   872.2
  1150.5
  1200.3
  1200.3
  1200.4
  1200.4
  1200.3
  1200.3
  1200.3
  1200.4
  1200.4
  1200.4
  1200.2
  1200.3
  1200.3
  1200.4
  1200.4
  1200.4
  1200.1
  1200.1
  1200.1
  1200.4
  1200.3
  1032.6
   871.8
   416.4
   234.9
     0.0
     0.0
   123.9
   284.7
   516.8
  1005.9
  1200.5
  1200.5
  1200.3
  1200.6
  1200.6
  1200.3
  1200.3
  1200.3
  1200.5
  1200.4
  1200.4
  1200.2
  1200.3
  1200.3
  1200.3
  1200.3
  1200.4
  1200.1
  1200.1
  1200.4
  1200.4
  1071.2
   501.5
   232.9
   162.0
    84.1
     0.0
     0.0
   152.4
   471.5
   765.8
   909.2
  1200.5
  1200.3
  1200.3
  1200.2
  1200.6
  1200.4
  1200.3
  1200.3
  1200.5
  1200.4
  1200.4
  1200.3
  1200.3
  1200.3
  1200.3
  1200.3
  1200.1
  1200.1
  1200.4
  1169.6
  1047.3
   769.3
   424.9
   360.7
     0.0
     0.0
   383.4
   276.9
   254.3
   543.8
  1028.9
  1200.3
  1200.2
  1200.4
  1200.4
  1200.3
  1200.3
  1200.5
  1200.4
  1200.4
  1200.3
  1200.2
  1200.3
  1200.3
  1200.1
  1200.1
  1200.1
  1200.3
  1134.7
   806.3
   512.8
   494.5
   143.7
     0.0
     0.0
   391.5
   111.0
   570.3
   647.2
   848.8
  1095.4
  1200.3
  1200.2
  1200.4
  1200.4
  1200.3
  1200.5
  1200.3
  1200.3
  1200.3
  1200.3
  1200.4
  1200.3
  1200.1
  1200.3
  1200.3
  1200.1
  1200.3
  1200.3
  1117.1
   665.6
   224.7
   505.1
   306.4
     0.0
     0.0
    63.4
   114.1
   211.2
   322.6
   831.3
  1173.7
  1200.2
  1200.3
  1200.3
  1200.3
  1200.3
  1200.3
  1200.5
  1200.5
  1200.3
  1200.3
  1200.3
  1200.4
  1200.3
  1200.3
  1200.3
  1200.3
  1200.3
  1200.3
  1200.3
  1200.3
  1069.1
   607.4
   144.2
   269.9
     0.0
     0.0
   222.9
   298.8
   647.6
   799.3
  1056.3
  1200.4
  1200.3
  1200.3
  1200.3
  1200.3
  1200.3
  1200.5
  1200.3
  1200.3
  1200.4
  1200.4
  1200.4
  1200.4
  1200.3
  1200.3
  1200.3
  1200.3
  1200.3
  1200.3
  1177.2
   668.3
   158.2
    40.5
     0.0
     0.0
   193.0
   328.7
   619.8
   910.1
  1112.5
  1200.4
  1200.4
  1200.3
  1200.2
  1200.2
  1200.5
  1200.5
  1200.3
  1200.4
  1200.4
  1200.4
  1200.4
  1200.3
  1200.3
  1200.3
  1200.3
  1200.3
  1200.4
  1200.3
   941.3
   686.0
   231.2
   348.9
   301.8
     0.0
     0.0
   349.0
   330.9
   371.4
   633.9
  1020.3
  1200.3
  1200.4
  1200.3
  1200.2
  1200.2
  1200.5
  1200.5
  1200.3
  1200.4
  1200.4
  1200.3
  1200.4
  1200.4
  1200.3
  1200.3
  1200.4
  1200.3
  1200.1
   945.2
   721.3
   648.9
   614.8
   116.4
     0.0
     0.0
    71.8
   147.4
   248.2
   366.6
   898.4
  1200.3
  1200.2
  1200.3
  1200.4
  1200.4
  1200.5
  1200.3
  1200.4
  1200.2
  1200.3
  1200.4
  1200.4
  1200.3
  1200.4
  1200.4
  1200.3
  1200.1
  1066.6
   904.3
   767.0
   499.3
   260.8
     0.0
     0.0
   174.6
   519.2
   467.6
   767.2
  1016.0
  1200.3
  1200.3
  1200.3
  1200.4
  1200.4
  1200.4
  1200.5
  1200.4
  1200.4
  1200.4
  1200.4
  1200.4
  1200.2
  1200.4
  1200.2
  1200.4
  1200.4
  1200.4
  1200.4
  1141.3
   968.2
   622.1
   665.5
   370.0
   125.0
     0.0
     0.0
   441.4
   386.4
   435.0
   787.8
  1138.0
  1200.3
  1200.3
  1200.3
  1200.3
  1200.3
  1200.4
  1200.5
  1200.4
  1200.4
  1200.4
  1200.4
  1200.2
  1200.2
  1200.2
  1200.2
  1200.4
  1200.4
  1200.4
  1075.5
   823.5
   445.4
   269.7
   525.1
   179.7
     0.0
     0.0
   195.5
   394.4
   189.0
   627.9
  1076.5
  1193.4
  1200.3
  1200.3
  1200.3
  1200.3
  1200.5
  1200.4
  1200.4
  1200.4
  1200.4
  1200.3
  1200.3
  1200.3
  1200.2
  1200.3
  1200.3
  1200.3
  1200.4
  1200.4
  1056.0
   956.0
   507.4
   128.3
   285.1
     0.0
     0.0
    86.4
   461.5
   405.4
   814.5
  1176.3
  1200.3
  1200.3
  1200.3
  1200.5
  1200.5
  1200.5
  1200.4
  1200.4
  1200.4
  1200.4
  1200.4
  1200.3
  1200.3
  1200.4
  1200.3
  1200.3
  1200.3
  1200.3
  1200.3
  1195.2
  1146.9
   767.5
   364.0
   141.7
    93.7
    53.3
     0.0
     0.0
    66.3
   220.4
   770.6
   979.3
  1078.1
  1200.3
  1200.3
  1200.3
  1200.3
  1200.5
  1200.5
  1200.4
  1200.4
  1200.4
  1200.4
  1200.4
  1200.3
  1200.3
  1200.3
  1200.3
  1200.3
  1200.3
  1200.3
  1200.3
  1195.7
  1159.6
   794.2
   586.6
   393.6
   229.4
   198.4
     0.0
     0.0
   200.5
   524.0
   685.3
  1025.2
  1084.2
  1200.4
  1200.4
  1200.5
  1200.4
  1200.4
  1200.4
  1200.4
  1200.3
  1200.3
  1200.3
  1200.4
  1200.4
  1200.4
  1200.2
  1200.2
  1200.4
  1200.3
   975.6
   522.7
   473.9
   302.4
     0.0
     0.0
   200.2
   485.4
   799.0
   372.3
   628.4
  1083.9
  1200.4
  1200.4
  1200.4
  1200.3
  1200.4
  1200.4
  1200.2
  1200.2
  1200.3
  1200.3
  1200.3
  1200.4
  1200.4
  1200.4
  1200.4
  1200.5
  1200.2
  1200.4
  1200.4
  1172.5
   875.7
   577.8
   234.0
     0.0
     0.0
   144.6
   298.3
   528.2
   232.0
   520.2
  1177.6
  1200.4
  1200.4
  1200.4
  1200.3
  1200.4
  1200.4
  1200.4
  1200.3
  1200.3
  1200.4
  1200.4
  1200.4
  1200.4
  1200.4
  1200.5
  1200.1
  1200.2
  1200.4
  1054.5
   609.2
   286.2
   114.4
     0.0
     0.0
    38.6
    97.2
   128.5
   505.8
   933.9
  1200.1
  1200.1
  1200.3
  1200.4
  1200.4
  1200.4
  1200.4
  1200.4
  1200.3
  1200.2
  1200.4
  1200.4
  1200.4
  1200.4
  1200.2
  1200.3
  1200.3
  1200.3
  1200.4
   896.8
   681.3
   697.4
   618.0
   311.2
     0.0
     0.0
   310.9
   308.8
   361.6
   932.7
  1200.3
  1200.1
  1200.1
  1200.2
  1200.3
  1200.4
  1200.4
  1200.4
  1200.4
  1200.3
  1200.3
  1200.4
  1200.3
  1200.4
  1200.4
  1200.4
  1200.2
  1200.3
  1200.2
  1025.9
   780.9
   318.1
   428.1
   101.8
    51.0
     0.0
     0.0
   320.4
   563.7
   739.3
  1050.3
  1200.3
  1200.1
  1200.2
  1200.2
  1200.3
  1200.4
  1200.4
  1200.5
  1200.3
  1200.3
  1200.3
  1200.3
  1200.3
  1200.3
  1200.4
  1200.1
  1200.3
  1200.3
  1200.3
  1200.2
  1145.2
   767.9
   396.0
   159.8
   356.5
     0.0
     0.0
    86.4
   565.8
   747.3
   677.2
  1100.4
  1200.1
  1200.1
  1200.2
  1200.2
  1200.3
  1200.4
  1200.2
  1200.5
  1200.3
  1200.3
  1200.3
  1200.3
  1200.1
  1200.1
  1200.3
  1200.3
  1200.3
  1200.4
   998.2
  1101.0
   619.8
   266.3
   272.7
     0.0
     0.0
   121.2
   232.5
   503.1
  1056.4
  1200.3
  1200.1
  1200.2
  1200.3
  1200.3
  1200.4
  1200.2
  1200.3
  1200.3
  1200.2
  1200.2
  1200.2
  1200.2
  1200.2
  1200.2
  1200.2
  1200.3
  1200.3
  1200.4
  1200.4
  1176.6
   935.0
   688.5
   598.4
   197.1
     0.0
     0.0
   166.2
   536.7
   589.0
   598.7
  1084.4
  1105.6
  1200.3
  1200.2
  1200.2
  1200.1
  1200.2
  1200.2
  1200.2
  1200.2
  1200.3
  1200.2
  1200.2
  1200.2
  1200.3
  1200.2
  1200.1
  1200.3
  1200.4
  1200.4
  1200.6
   798.8
   486.3
   219.2
   355.8
   361.6
     0.0
     0.0
   123.1
   606.4
   734.1
   989.7
  1200.3
  1200.3
  1200.2
  1200.2
  1200.1
  1200.2
  1200.2
  1200.2
  1200.2
  1200.2
  1200.4
  1200.4
  1200.4
  1200.4
  1200.3
  1200.3
  1200.1
  1200.3
  1200.3
  1200.3
   862.1
   699.3
   542.9
    87.6
    47.5
     0.0
     0.0
    58.8
   343.5
   247.5
   612.6
  1087.3
  1200.3
  1200.4
  1182.0
  1111.3
  1200.2
  1200.2
  1200.5
  1200.2
  1200.2
  1200.2
  1200.4
  1200.4
  1200.4
  1200.3
  1200.3
  1200.1
  1200.3
  1200.3
  1200.3
  1128.8
   688.7
   299.4
   215.6
   168.5
   285.0
     0.0
     0.0
   175.5
   637.2
   622.1
  1036.5
  1161.2
  1200.4
  1102.1
   966.9
  1103.9
  1098.1
  1200.5
  1200.2
  1183.3
  1200.4
  1200.4
  1200.4
  1200.3
  1200.3
  1200.3
  1200.1
  1200.3
  1200.3
  1200.3
  1200.3
  1106.0
   745.3
   341.7
   398.9
   169.3
     0.0
     0.0
   261.9
   448.6
   376.2
  1035.1
  1154.3
  1039.9
  1007.8
  1045.7
   650.7
   842.5
   682.7
  1161.2
  1200.5
   980.5
  1106.4
  1137.0
  1200.4
  1117.9
  1200.3
  1200.3
  1192.3
  1200.3
  1200.4
  1200.4
  1200.4
  1200.4
  1031.2
   519.9
   378.3
   154.9
     0.0
     0.0
    93.8
   489.8
   628.5
   963.8
   920.0
   843.9
   825.7
   788.7
   782.7
   485.1
   760.1
  1083.9
   966.5
   996.5
  1008.5
  1129.2
  1006.6
   940.0
   956.8
   976.9
  1157.6
  1152.4
  1200.2
  1098.6
  1125.3
  1078.8
   811.9
   478.6
   520.7
     0.0
     0.0
   224.2
   171.7
   330.7
   646.1
   803.7
   482.6
   542.1
   539.3
   345.1
   248.4
   563.8
  1087.5
  1016.3
   472.6
   716.3
   716.1
  1025.9
   558.8
   529.7
   797.5
   970.2
  1094.8
   920.5
   960.8
   707.8
   890.5
   599.4
   192.7
   213.6
     0.0
     0.0
   397.0
   254.7
   722.4
   423.2
   727.9
   670.0
   280.0
   622.6
   205.1
   427.4
   833.9
   670.8
   955.9
   289.2
   326.4
   831.3
   628.2
   263.8
   362.8
   703.8
   682.2
   917.8
   861.2
   712.8
   431.7
   954.7
   788.9
   424.1
   100.6
     0.0
     0.0
   162.2
   411.4
   477.4
   263.2
   427.9
   254.0
   431.8
   558.8
   132.4
   580.3
   673.0
   721.5
   439.6
   172.2
   487.5
   434.5
   333.5
   193.8
   497.5
   340.3
   447.2
   348.7
   342.8
   281.6
   602.3
   435.4
   436.5
   240.2
     0.0
     0.0
   247.2
   429.8
   367.7
   303.7
   129.3
   480.4
   516.2
   156.9
   524.5
    88.4
   242.3
   392.4
   369.9
   472.5
   115.8
   233.3
   532.3
   221.1
   106.5
   522.4
   634.5
   202.1
   463.1
   221.8
   649.5
   150.3
   775.2
   290.5
   356.8
   268.5
     0.0
     0.0
   342.9
   168.4
   550.2
    74.9
   457.8
   315.8
   292.8
    66.4
   209.7
   325.7
    59.4
   126.0
   210.1
   293.4
   351.7
   249.8
    77.7
   477.1
   105.6
   341.3
    56.9
   430.0
   368.2
   106.9
   181.5
   353.7
    81.2
   405.4
   291.6
   123.4
   236.6
   328.2
     0.0
     0.0
   373.3
   257.6
   185.6
   275.4
   143.8
   283.2
   119.9
   253.3
    42.2
   288.3
   157.1
   124.2
    47.9
   263.7
    69.0
   290.3
   218.4
   105.9
    63.9
    96.3
    91.1
   185.7
   147.7
   125.0
   298.1
   446.4
   176.0
     0.0
     0.0
     0.0
     0.0
     0.0
     0.0
     0.0
     0.0
     0.0
     0.0
     0.0
     0.0
     0.0
     0.0
     0.0
     0.0
     0.0
     0.0
     0.0
     0.0
     0.0
     0.0
     0.0
     0.0
     0.0
     0.0
     0.0
     0.0
     0.0
     0.0
     0.0
     0.0
     0.0
     0.0
     0.0
     0.0
     0.0
     0.0
     0.0
     0.0
     0.0
     0.0
     0.0
     0.0
     0.0
     0.0
     0.0
     0.0
     0.0
     0.0
     0.0
     0.0
   140.9
   463.6
   331.2
   652.5
   311.3
   700.1
   703.2
  1145.9
  1200.3
  1200.3
  1200.4
   841.9
  1200.3
  1200.3
  1200.1
   153.0
   832.8
  1200.3
  1200.3
  1200.4
  1200.4
  1200.2
   552.5
  1200.4
  1200.2
  1200.2
  1200.3
  1200.3
  1200.4
  1200.3
   826.8
  1200.2
  1200.4
   463.8
   802.4
   747.5
   487.8
   412.4
    58.7
   223.2
    21.0
    38.4
   331.2
    35.8
    65.4
    43.3
    61.5
    35.1
   121.1
    51.1
    43.6
    72.0
   145.5
    34.9
   148.6
    86.4
    95.2
   102.0
    47.8
   163.6
    86.3
   177.6
    43.4
   138.8
    42.4
   133.7
    30.0
   157.2
   163.6
    33.2
   100.9
    63.7
    37.5
    70.8
   151.9
   242.8
   136.0
    32.9
    93.1
   228.0
    36.0
    79.5
   174.6
    96.2
   219.4
    42.0
    25.7
    87.5
   135.0
   119.5
    51.8
   136.6
   119.5
   148.5
   142.5
    40.0
   131.1
    95.2
    81.5
    83.2
   120.4
    42.9
   113.5
   158.7
    46.1
    74.1
   129.1
   113.5
   146.2
    84.4
    37.5
    31.6
    57.5
   139.2
    29.3
    40.9
    58.9
   144.5
   148.3
   100.9
    78.8
    54.4
    21.2
   126.3
    75.1
    60.9
    23.7
   150.6
    48.2
   145.3
   214.9
   137.8
   144.9
   137.2
   127.6
    25.3
   164.3
    28.9
   610.9
   492.4
   687.9
   375.3
   643.2
   533.4
  1092.9
   793.8
   736.7
   894.1
  1200.4
  1200.2
  1200.3
  1200.3
  1200.3
  1200.3
  1200.3
   521.6
  1200.3
  1064.8
   557.2
  1200.3
   675.3
  1200.4
  1200.4
  1052.5
  1200.2
  1200.4
  1200.4
  1200.4
  1200.3
  1200.3
  1200.4
  1200.3
  1196.3
  1200.4
  1200.4
  1200.4
  1143.6
   500.5
   204.0
  1200.1
  1200.3
  1200.3
  1200.3
  1200.2
  1200.2
  1123.4
  1200.3
  1200.3
  1200.3
   512.5
  1173.2
  1200.1
   319.4
  1200.3
  1200.3
   620.7
   980.7
   905.9
   456.3
   569.1
   700.6
   404.2
   376.0
   587.0
   470.6
   627.7
   217.5
  1200.4
  1200.3
  1200.2
  1200.3
  1200.3
  1200.3
  1200.3
   397.7
   679.7
   468.3
  1200.4
  1200.2
  1200.3
   520.8
   821.6
   450.9
  1200.3
  1200.3
  1200.1
  1200.2
  1200.4
  1200.4
  1165.4
  1169.7
  1200.3
  1200.3
  1200.2
  1156.6
  1200.3
  1177.3
  1200.1
  1141.0
   430.9
   454.4
  1200.3
   533.4
  1200.3
  1200.3
   360.4
    78.6
  1200.4
   224.4
   183.2
   253.4
   143.4
    96.4
   161.1
   643.9
  1200.3
  1200.3
   133.8
   179.9
   180.4
   100.8
   137.6
    65.0
   252.4
   179.9
   148.0
   273.3
   189.0
   389.3
   128.9
   439.3
    91.5
    97.7
   271.6
   159.0
    96.0
   222.4
   460.6
   144.2
   166.2
   327.0
   256.6
   196.5
   176.9
   335.4
   282.5
   416.6
   112.6
   215.0
   290.3
   233.4
   341.6
   199.9
   216.7
   224.9
   316.9
   135.2
   187.0
   107.2
   133.8
   312.5
   306.6
   181.9
   243.0
   185.3
   131.7
   234.3
   124.8
   141.3
   159.5
   331.7
   156.6
   185.8
   354.6
   143.6
   199.2
   223.0
   329.1
   188.4
   375.4
   174.9
   291.7
   179.3
   313.5
   214.5
   214.9
   131.7
   446.5
   274.0
   153.8
   482.4
   324.7
   187.0
   521.4
   456.3
   366.4
   214.9
   176.2
   352.5
   276.3
   347.6
   570.6
   200.2
   402.1
   167.9
   291.0
   248.6
   147.7
   201.5
   194.4
   337.3
   184.2
   238.5
   418.1
   156.2
   317.6
   281.0
   173.1
   447.8
   222.1
   204.2
   290.3
   409.9
   150.2
   224.7
   277.0
   188.8
   272.9
   579.7
   278.0
   173.2
   139.2
   268.5
   405.7
   212.0
   317.6
   482.7
   490.2
   409.9
   539.1
   487.1
   201.4
   365.4
   252.8
   541.2
   348.1
   453.5
   503.4
   501.4
   260.3
   284.5
   275.8
   254.5
   288.9
   361.6
   254.3
   265.6
   310.5
   187.5
   190.5
   320.5
   252.2
   378.2
   331.7
   510.2
   250.7
   286.0
   379.8
   538.2
   448.6
   316.6
   321.7
   307.9
   297.6
   344.9
   388.1
   397.9
   280.2
   404.0
   321.8
   492.3
   370.0
   579.3
   525.8
   368.0
   479.0
   329.7
   492.7
   393.4
   555.8
   694.0
   584.2
   320.9
   406.4
   391.7
   537.4
   381.9
   456.9
   334.1
   628.6
   472.7
   541.1
   442.5
   368.4
   333.0
   427.7
   454.2
   733.1
   442.3
   458.5
   648.2
   612.4
   450.6
   422.0
   270.3
   513.9
   497.2
   627.1
   558.8
   573.2
   359.1
   589.6
   655.2
   595.9
   331.7
   653.5
   760.4
   457.6
   575.7
   617.8
   510.9
   771.3
   534.9
   636.1
   359.4
   558.1
   545.1
   571.4
   559.6
   492.1
   483.9
   539.2
   603.9
   715.3
   754.6
   671.7
   489.2
   365.9
   482.6
   771.5
   787.7
   783.2
   694.6
   605.5
   606.7
   859.1
   779.7
   713.5
   813.2
   741.8
   804.2
   741.1
   713.2
   560.5
   725.9
   714.1
   758.1
   668.7
   717.8
   762.7
   712.9
   808.0
   445.3
   796.8
   756.7
   801.9
   784.1
   857.3
   870.8
   824.6
   879.3
   808.7
   764.5
   784.4
   890.3
   825.9
   794.0
   861.1
   949.9
   839.4
   743.7
   912.3
   853.0
   828.8
   893.8
   829.6
   761.3
   429.1
   595.9
   854.6
   798.6
   902.4
   868.5
   879.2
   908.7
   902.1
   916.6
   956.7
   879.7
   532.4
   602.0
   926.7
   940.9
   954.8
   856.8
   933.2
   929.8
   926.3
   928.2
   918.5
   663.4
   610.0
   985.9
   915.9
   833.4
   958.8
   953.8
   963.2
   992.2
   999.4
   967.4
   980.7
   991.7
   730.9
SCALARS discharge float 1
LOOKUP_TABLE default
  0.1006E+05
  0.1921E+07
  0.1252E+08
  0.1988E+07
  0.3506E+08
  0.1230E+07
  0.2451E+08
  0.1358E+07
  0.3062E+07
  0.1280E+07
  0.6059E+08
  0.2390E+07
  0.1115E+09
  0.1507E+07