# vtk DataFile Version 3.0
Landscape
ASCII
DATASET UNSTRUCTURED_GRID
POINTS       1880 float
           0.000           0.000           0.000
        1600.000           0.000           0.000
        3200.000           0.000           0.000
        4800.000           0.000           0.000
        6400.000           0.000           0.000
        8000.000           0.000           0.000
        9600.000           0.000           0.000
       11200.000           0.000           0.000
       12800.000           0.000           0.000
       14400.001           0.000           0.000
       16000.000           0.000           0.000
       17600.000           0.000           0.000
       19200.000           0.000           0.000
       20799.999           0.000           0.000
       22400.000           0.000           0.000
       24000.001           0.000           0.000
       25599.999           0.000           0.000
       27200.000           0.000           0.000
       28800.001           0.000           0.000
       30400.000           0.000           0.000
       32000.000           0.000           0.000
       33599.999           0.000           0.000
       35200.000           0.000           0.000
       36800.001           0.000           0.000
       38399.999           0.000           0.000
       40000.000           0.000           0.000
       41599.998           0.000           0.000
       43200.002           0.000           0.000
       44800.000           0.000           0.000
       46399.999           0.000           0.000
       48000.002           0.000           0.000
       49600.000           0.000           0.000
       51199.999           0.000           0.000
       52800.002           0.000           0.000
       54400.001           0.000           0.000
       55999.999           0.000           0.000
       57600.002           0.000           0.000
       59200.001           0.000           0.000
       60799.999           0.000           0.000
       62399.998           0.000           0.000
       64000.001           0.000           0.000
       65599.999           0.000           0.000
       67199.998           0.000           0.000
       68800.001           0.000           0.000
       70400.000           0.000           0.000
       71999.998           0.000           0.000
       73600.001           0.000           0.000
       75200.000           0.000           0.000
       76799.998           0.000           0.000
       78400.002           0.000           0.000
       80000.000           0.000           0.000
           0.000        1600.000           0.000
        1820.535        1836.129         115.924
        4436.497        1560.645         134.593
        8231.839        1585.959         125.009
       11192.297        1979.624         153.645
       14535.388        1860.001         111.494
       17224.315        1919.917         137.968
       20899.237        1802.853         148.312
       23731.335        1792.943         129.454
       27507.238        1603.221         132.031
       30065.602        1613.570         166.848
       33371.579        1994.991         125.143
       37099.539        1414.823         141.622
       38196.713        1837.356         116.695
       41840.942        1855.796         136.688
       43418.644        1867.336         105.233
       46734.950        1319.882         147.750
       49975.028        1831.460         170.075
       52954.322        1538.422         140.776
       55816.240        1531.934         133.682
       59004.449        1641.677         135.948
       60471.826        1510.939         140.290
       63784.513        1656.536         169.256
       67301.210        1771.228         161.291
       70381.695        1920.216         168.201
       72217.113        1448.806         116.954
       75069.462        1621.662         134.570
       78696.327        1722.356         129.615
       80000.000        1600.000           0.000
           0.000        3200.000           0.000
        3274.399        3217.174         179.970
        5160.666        3300.186         200.492
        6043.012        3262.445         156.033
        9502.865        3552.908         200.557
       11056.006        2840.019         200.556
       14606.628        2840.755         153.717
       17562.634        3511.308         171.561
       18833.142        3539.080         126.973
       22026.411        2868.051         158.213
       25600.029        2863.835         156.207
       27192.156        3106.980         200.223
       30375.600        2888.881         200.209
       33224.678        2857.386         163.133
       36841.038        3085.085         166.196
       40238.304        3524.647         162.709
       43557.179        3128.631         150.155
       46228.872        2830.415         157.874
       48146.017        3166.706         169.232
       51153.215        2952.745         156.707
       53124.514        2981.904         200.022
       56001.007        3429.944         200.346
       59307.581        3225.477         200.233
       62124.444        3154.870         165.812
       64132.610        2904.590         200.373
       67439.924        3451.420         200.207
       68998.763        3472.006         200.342
       72219.436        2879.026         168.019
       75532.535        3132.944         200.566
       78652.387        3551.841         126.248
       80000.000        3200.000           0.000
           0.000        4800.000           0.000
        1400.060        4439.660         141.196
        4786.648        4655.285         200.502
        8308.484        5116.135         200.415
       11454.778        4403.585         200.710
       14098.429        4923.032         200.219
       17912.789        5043.475         177.954
       20446.875        4859.061         176.924
       24108.597        4895.159         200.726
       27234.832        4431.193         200.380
       28696.423        4449.033         200.208
       32196.694        4589.490         200.544
       33867.228        4797.771         200.479
       34933.129        4760.558         200.479
       38067.139        5053.208         193.069
       41605.852        4581.133         195.500
       44854.687        5021.321         200.133
       48175.269        4416.823         200.236
       51163.202        5122.950         200.189
       54186.876        4703.411         200.263
       56317.818        4828.699         200.263
       59169.326        5108.954         200.233
       62536.999        4516.819         200.373
       65848.099        4445.450         200.207
       68694.276        4766.024         200.435
       71946.222        4752.098         200.115
       75433.121        5067.460         200.469
       78033.243        4664.320         141.036
       80000.000        4800.000           0.000
           0.000        6400.000           0.000
        2841.623        6773.290         152.309
        6245.685        6376.243         200.498
        7744.385        6030.238         200.410
       11368.686        6592.994         200.341
       14270.010        6704.916         200.474
       17330.427        6370.488         200.529
       19571.144        6573.041         200.472
       22641.152        6627.002         200.747
       23763.572        6012.529         200.713
       27463.089        6427.221         200.248
       30273.002        6504.167         200.282
       33884.178        6077.220         200.479
       35390.886        6255.305         200.479
       38075.664        6205.118         200.390
       40048.604        6389.405         200.378
       43255.311        6307.072         200.349
       46126.564        6231.346         200.132
       48285.057        6596.744         200.132
       51294.080        6157.575         200.150
       54250.249        6543.358         200.312
       57921.865        6224.397         200.546
       59558.312        6004.572         200.233
       62425.662        6132.109         200.391
       65724.696        6341.122         200.295
       68956.079        6674.843         200.465
       72380.520        6490.972         200.377
       75318.037        6459.550         200.496
       78160.955        6114.578         135.542
       80000.000        6400.000           0.000
           0.000        8000.000           0.000
        3576.129        8217.635         148.149
        5061.593        7652.754         180.201
        8105.944        7856.844         200.410
       11121.498        7830.817         200.367
       14531.786        8256.985         200.461
       16036.950        7761.051         200.307
       19087.239        8020.414         200.460
       22626.171        7850.784         200.569
       25653.785        8135.625         200.425
       28733.316        8014.857         200.207
       30647.917        7622.140         200.207
       31669.813        8123.016         200.207
       35544.551        8083.612         200.648
       38771.621        7743.567         200.476
       41941.639        8315.419         200.315
       44649.095        8053.831         200.135
       48005.993        8300.872         200.142
       51584.272        8303.210         200.275
       52951.115        7723.006         200.275
       55834.828        8389.314         200.385
       58839.904        7674.993         200.234
       60484.772        8202.290         200.283
       63784.723        8145.830         200.590
       67326.420        8175.747         200.391
       68571.734        8073.207         200.391
       72193.925        8373.058         200.694
       73714.578        7878.720         200.470
       77044.523        8185.581         163.092
       78448.742        7636.455         108.321
       80000.000        8000.000           0.000
           0.000        9600.000           0.000
[...]
POINT_DATA       1880
SCALARS height float 1
LOOKUP_TABLE default
     0.0
     0.0
     0.0
     0.0
     0.0
     0.0
     0.0
     0.0
     0.0
     0.0
     0.0
     0.0
     0.0
     0.0
     0.0
     0.0
     0.0
     0.0
     0.0
     0.0
     0.0
     0.0
     0.0
     0.0
     0.0
     0.0
     0.0
     0.0
     0.0
     0.0
     0.0
     0.0
     0.0
     0.0
     0.0
     0.0
     0.0
     0.0
     0.0
     0.0
     0.0
     0.0
     0.0
     0.0
     0.0
     0.0
     0.0
     0.0
     0.0
     0.0
     0.0
     0.0
   115.9
   134.6
   125.0
   153.6
   111.5
   138.0
   148.3
   129.5
   132.0
   166.8
   125.1
   141.6
   116.7
   136.7
   105.2
   147.8
   170.1
   140.8
   133.7
   135.9
   140.3
   169.3
   161.3
   168.2
   117.0
   134.6
   129.6
     0.0
     0.0
   180.0
   200.5
   156.0
   200.6
   200.6
   153.7
   171.6
   127.0
   158.2
   156.2
   200.2
   200.2
   163.1
   166.2
   162.7
   150.2
   157.9
   169.2
   156.7
   200.0
   200.3
   200.2
   165.8
   200.4
   200.2
   200.3
   168.0
   200.6
   126.2
     0.0
     0.0
   141.2
   200.5
   200.4
   200.7
   200.2
   178.0
   176.9
   200.7
   200.4
   200.2
   200.5
   200.5
   200.5
   193.1
   195.5
   200.1
   200.2
   200.2
   200.3
   200.3
   200.2
   200.4
   200.2
   200.4
   200.1
   200.5
   141.0
     0.0
     0.0
   152.3
   200.5
   200.4
   200.3
   200.5
   200.5
   200.5
   200.7
   200.7
   200.2
   200.3
   200.5
   200.5
   200.4
   200.4
   200.3
   200.1
   200.1
   200.2
   200.3
   200.5
   200.2
   200.4
   200.3
   200.5
   200.4
   200.5
   135.5
     0.0
     0.0
   148.1
   180.2
   200.4
   200.4
   200.5
   200.3
   200.5
   200.6
   200.4
   200.2
   200.2
   200.2
   200.6
   200.5
   200.3
   200.1
   200.1
   200.3
   200.3
   200.4
   200.2
   200.3
   200.6
   200.4
   200.4
   200.7
   200.5
   163.1
   108.3
     0.0
     0.0
   160.8
   200.5
   200.3
   200.1
   200.3
   200.4
   200.5
   200.4
   200.4
   200.2
   200.2
   200.2
   200.3
   200.3
   200.3
   200.3
   200.1
   200.2
   200.3
   200.3
   200.3
   200.3
   200.4
   200.5
   200.4
   200.4
   200.5
   200.3
   142.1
     0.0
     0.0
   169.1
   200.4
   200.2
   200.4
   200.3
   200.4
   200.4
   200.6
   200.3
   200.4
   200.4
   200.3
   200.3
   200.3
   200.5
   200.2
   200.3
   200.5
   200.4
   200.3
   200.3
   200.3
   200.3
   200.3
   200.5
   200.3
   200.3
   200.3
   200.2
   147.9
     0.0
     0.0
   179.3
   200.2
   200.2
   200.2
   200.3
   200.3
   200.3
   200.4
   200.4
   200.4
   200.4
   200.3
   200.3
   200.2
   200.3
   200.6
   200.3
   200.3
   200.4
   200.4
   200.2
   200.3
   200.3
   200.3
   200.3
   200.5
   200.3
   200.3
   200.3
   200.2
   200.2
   170.0
     0.0
     0.0
   112.0
   171.1
   200.2
   200.2
   200.4
   200.4
   200.4
   200.2
   200.6
   200.4
   200.0
   200.2
   200.6
   200.5
   200.5
   200.3
   200.3
   200.2
   200.2
   200.2
   200.3
   200.4
   200.6
   200.3
   200.3
   200.6
   200.3
   175.7
     0.0
     0.0
   159.0
   200.4
   200.2
   200.3
   200.5
   200.2
   200.6
   200.4
   200.4
   200.4
   200.4
   200.2
   200.2
   200.3
   200.6
   200.3
   200.5
   200.2
   200.2
   200.4
   200.4
   200.3
   200.3
   200.3
   200.3
   200.2
   200.2
   200.2
   156.7
     0.0
     0.0
   170.9
   200.4
   200.5
   200.3
   200.3
   200.3
   200.4
   200.4
   200.4
   200.5
   200.3
   200.2
   200.3
   200.2
   200.2
   200.4
   200.3
   200.3
   200.2
   200.3
   200.3
   200.3
   200.3
   200.3
   200.4
   200.2
   200.5
   158.8
     0.0
     0.0
   175.4
   200.3
   200.4
   200.4
   200.5
   200.3
   200.3
   200.4
   200.4
   200.4
   200.4
   200.3
   200.3
   200.3
   200.3
   200.2
   200.4
   200.3
   200.2
   200.3
   200.3
   200.3
   200.3
   200.4
   200.3
   200.2
   200.5
   170.4
     0.0
     0.0
   156.1
   200.4
   200.5
   200.5
   200.5
   200.3
   200.3
   200.5
   200.4
   200.4
   200.4
   200.2
   200.3
   200.4
   200.3
   200.6
   200.2
   200.2
   200.2
   200.2
   200.2
   200.5
   200.4
   200.4
   200.3
   200.2
   200.7
   200.5
   137.9
     0.0
     0.0
   154.4
   200.6
   200.4
   200.6
   200.4
   200.2
   200.6
   200.4
   200.4
   200.4
   200.7
   200.4
   200.3
   200.6
   200.4
   200.1
   200.1
   200.6
   200.3
   200.1
   200.1
   200.6
   200.3
   200.3
   200.3
   200.3
   200.7
   200.5
   131.4
     0.0
     0.0
   159.3
   200.5
   200.4
   200.4
   200.7
   200.3
   200.2
   200.4
   200.4
   200.2
   200.2
   200.5
   200.4
   200.3
   200.4
   200.2
   200.3
   200.4
   200.3
   200.4
   200.3
   200.1
   200.1
   200.3
   200.4
   200.4
   200.4
   200.4
   200.3
   129.3
     0.0
     0.0
   159.0
   200.6
   200.4
   200.4
   200.5
   200.5
   200.4
   200.5
   200.5
   200.4
   200.2
   200.2
   200.6
   200.4
   200.3
   200.2
   200.4
   200.3
   200.4
   200.2
   200.5
   200.1
   200.2
   200.4
   200.4
   200.3
   200.4
   200.2
   200.2
   145.5
     0.0
     0.0
   140.2
   200.5
   200.6
   200.2
   200.6
   200.3
   200.3
   200.2
   200.6
   200.3
   200.2
   200.2
   200.4
   200.3
   200.5
   200.4
   200.3
   200.3
   200.2
   200.2
   200.1
   200.1
   200.6
   200.5
   200.3
   200.2
   200.2
   184.6
     0.0
     0.0
   167.7
   181.8
   200.6
   200.2
   200.3
   200.3
   200.2
   200.3
   200.3
   200.4
   200.2
   200.4
   200.5
   200.3
   200.2
   200.2
   200.4
   200.6
   200.1
   200.1
   200.1
   200.3
   200.3
   200.3
   200.1
   200.3
   124.5
     0.0
     0.0
   171.9
   174.6
   200.3
   200.2
   200.2
   200.4
   200.3
   200.3
   200.5
   200.5
   200.3
   200.5
   200.6
   200.3
   200.3
   200.2
   200.6
   200.4
   200.1
   200.3
   200.3
   200.2
   200.3
   200.3
   200.2
   200.2
   200.6
   200.2
   165.9
     0.0
     0.0
   131.8
   177.3
   200.5
   200.2
   200.3
   200.2
   200.2
   200.2
   200.3
   200.4
   200.3
   200.3
   200.6
   200.5
   200.3
   200.3
   200.3
   200.4
   200.3
   200.3
   200.3
   200.3
   200.3
   200.3
   200.5
   200.3
   200.2
   200.2
   200.2
   151.3
     0.0
     0.0
   124.7
   200.2
   200.3
   200.3
   200.3
   200.3
   200.5
   200.6
   200.3
   200.3
   200.3
   200.3
   200.5
   200.3
   200.3
   200.6
   200.4
   200.4
   200.4
   200.3
   200.5
   200.3
   200.3
   200.3
   200.5
   200.5
   200.4
   200.2
   126.6
     0.0
     0.0
   161.2
   200.2
   200.4
   200.4
   200.5
   200.3
   200.3
   200.3
   200.1
   200.3
   200.5
   200.5
   200.4
   200.5
   200.4
   200.4
   200.5
   200.4
   200.5
   200.3
   200.3
   200.4
   200.4
   200.3
   200.5
   200.4
   200.2
   200.3
   139.2
     0.0
     0.0
   163.1
   200.4
   200.4
   200.3
   200.5
   200.3
   200.6
   200.3
   200.3
   200.1
   200.5
   200.5
   200.2
   200.4
   200.4
   200.4
   200.5
   200.3
   200.3
   200.4
   200.4
   200.3
   200.1
   200.4
   200.4
   200.3
   200.3
   130.8
     0.0
     0.0
   157.7
   200.3
   200.2
   200.2
   200.4
   200.3
   200.2
   200.3
   200.4
   200.5
   200.6
   200.5
   200.6
   200.2
   200.3
   200.4
   200.3
   200.3
   200.4
   200.6
   200.6
   200.1
   200.4
   200.4
   200.3
   200.2
   200.2
     0.0
     0.0
   159.5
   200.3
   200.2
   200.6
   200.4
   200.5
   200.3
   200.4
   200.5
   200.4
   200.4
   200.5
   200.4
   200.6
   200.4
   200.4
   200.4
   200.2
   200.3
   200.2
   200.4
   200.4
   200.4
   200.4
   200.5
   200.3
   200.5
   200.6
   200.2
   133.2
     0.0
     0.0
   173.0
   200.2
   200.3
   200.4
   200.4
   200.3
   200.3
   200.3
   200.3
   200.3
   200.4
   200.6
   200.4
   200.4
   200.4
   200.4
   200.3
   200.2
   200.3
   200.2
   200.5
   200.4
   200.4
   200.3
   200.3
   200.5
   200.5
   200.3
   143.7
     0.0
     0.0
   121.0
   174.6
   200.2
   200.3
   200.5
   200.4
   200.3
   200.3
   200.3
   200.6
   200.5
   200.4
   200.4
   200.4
   200.7
   200.5
   200.3
   200.3
   200.5
   200.2
   200.4
   200.3
   200.4
   200.5
   200.7
   200.3
   200.5
   192.5
   165.2
     0.0
     0.0
   157.2
   200.2
   200.2
   200.6
   200.5
   200.5
   200.3
   200.3
   200.6
   200.5
   200.5
   200.4
   200.4
   200.4
   200.4
   200.4
   200.2
   200.4
   200.4
   200.2
   200.3
   200.3
   200.3
   200.3
   200.4
   200.3
   200.5
   200.2
   193.1
   176.1
   133.5
     0.0
     0.0
    92.7
   200.3
   200.2
   200.6
   200.4
   200.3
   200.3
   200.3
   200.4
   200.5
   200.7
   200.5
   200.4
   200.3
   200.3
   200.3
   200.2
   200.2
   200.3
   200.3
   200.4
   200.4
   200.5
   200.3
   200.5
   200.2
   200.4
   200.3
   200.2
   200.2
   158.5
     0.0
     0.0
   163.7
   200.0
   200.3
   200.4
   200.3
   200.4
   200.5
   200.5
   200.5
   200.4
   200.4
   200.7
   200.4
   200.5
   200.4
   200.4
   200.6
   200.6
   200.2
   200.2
   200.5
   200.2
   200.3
   200.4
   200.3
   155.0
     0.0
     0.0
   123.4
   200.5
   200.4
   200.3
   200.4
   200.3
   200.3
   200.6
   200.4
   200.3
   200.6
   200.4
   200.2
   200.2
   200.2
   200.2
   200.2
   200.4
   200.4
   200.4
   200.4
   200.4
   200.2
   200.5
   200.3
   200.1
   200.5
   200.3
   172.6
     0.0
     0.0
   167.9
   200.3
   200.4
   200.3
   200.1
   200.5
   200.3
   200.4
   200.4
   200.3
   200.6
   200.4
   200.5
   200.4
   200.2
   200.3
   200.3
   200.4
   200.4
   200.4
   200.6
   200.1
   200.2
   200.3
   200.1
   200.3
   200.5
   164.8
     0.0
     0.0
   105.2
   200.3
   200.3
   200.4
   200.3
   200.3
   200.1
   200.2
   200.3
   200.5
   200.4
   200.3
   200.3
   200.3
   200.5
   200.1
   200.3
   200.6
   200.4
   200.4
   200.4
   200.5
   200.3
   200.2
   200.3
   200.3
   200.3
   200.3
   200.2
   169.0
     0.0
     0.0
   159.1
   200.3
   200.6
   200.4
   200.3
   200.2
   200.1
   200.2
   200.5
   200.4
   200.5
   200.3
   200.3
   200.3
   200.3
   200.6
   200.3
   200.4
   200.4
   200.6
   200.1
   200.3
   200.2
   200.3
   200.3
   200.3
   189.9
   152.5
    95.7
     0.0
     0.0
   162.5
   200.4
   200.4
   200.4
   200.3
   200.1
   200.2
   200.3
   200.3
   200.3
   200.3
   200.5
   200.5
   200.3
   200.3
   200.3
   200.5
   200.3
   200.4
   200.1
   200.3
   200.3
   200.2
   200.2
   200.3
   200.3
   200.5
   183.7
   163.7
     0.0
     0.0
   146.9
   200.5
   200.4
   200.4
   200.3
   200.3
   200.1
   200.2
   200.2
   200.3
   200.3
   200.4
   200.5
   200.4
   200.3
   200.5
   200.3
   200.1
   200.3
   200.3
   200.4
   200.2
   200.4
   200.3
   200.3
   200.5
   195.3
   157.4
     0.0
     0.0
   178.1
   200.5
   200.4
   200.3
   200.3
   200.1
   200.2
   200.4
   200.3
   200.3
   200.1
   200.5
   200.2
   200.2
   200.2
   200.5
   200.2
   200.2
   200.2
   200.2
   200.4
   200.3
   200.4
   200.4
   200.7
   200.4
   200.3
   200.5
   161.7
     0.0
     0.0
   115.4
   200.5
   200.4
   200.4
   200.4
   200.3
   200.3
   200.2
   200.2
   200.3
   200.4
   200.2
   200.4
   200.1
   200.2
   200.2
   200.4
   200.2
   200.4
   200.2
   200.3
   200.3
   200.5
   200.4
   200.6
   200.5
   200.3
   200.7
   178.4
   161.5
     0.0
     0.0
   172.5
   200.4
   200.4
   200.3
   200.4
   200.6
   200.3
   200.2
   200.1
   200.3
   200.2
   200.3
   200.1
   200.2
   200.4
   200.3
   200.3
   200.3
   200.2
   200.3
   200.1
   200.4
   200.2
   200.5
   200.4
   200.3
   200.5
   166.1
   104.5
     0.0
     0.0
   114.1
   181.5
   200.4
   200.3
   200.3
   200.3
   200.4
   200.2
   200.2
   200.2
   200.2
   200.6
   200.2
   200.2
   200.1
   200.4
   200.3
   200.5
   200.4
   200.3
   200.1
   200.3
   200.2
   200.2
   200.3
   200.5
   200.5
   200.4
   200.4
   138.8
     0.0
     0.0
   148.1
   200.3
   200.3
   200.4
   200.3
   200.4
   200.3
   200.2
   200.3
   200.5
   200.4
   200.2
   200.1
   200.4
   200.4
   200.6
   200.3
   200.5
   200.3
   200.3
   200.2
   200.2
   200.2
   200.4
   200.6
   200.6
   200.4
   200.4
   164.3
     0.0
     0.0
   142.7
   186.6
   200.5
   200.5
   200.4
   200.3
   200.5
   200.3
   200.2
   200.2
   200.6
   200.5
   200.4
   200.3
   200.5
   200.4
   200.4
   200.6
   200.4
   200.3
   200.3
   200.4
   200.4
   200.4
   200.4
   200.4
   200.4
   200.6
   200.4
   126.4
     0.0
     0.0
   164.2
   200.4
   200.3
   200.4
   200.3
   200.3
   200.3
   200.4
   200.2
   200.4
   200.4
   200.5
   200.3
   200.3
   200.2
   200.6
   200.5
   200.4
   200.3
   200.3
   200.4
   200.3
   200.1
   200.4
   200.4
   200.4
   200.3
   200.3
   200.4
     0.0
     0.0
   180.2
   200.2
   200.2
   200.4
   200.3
   200.5
   200.3
   200.3
   200.1
   200.1
   200.4
   200.6
   200.6
   200.4
   200.2
   200.2
   200.2
   200.2
   200.3
   200.5
   200.3
   200.3
   200.4
   200.3
   200.6
   200.5
   200.3
   200.4
   130.2
     0.0
     0.0
   172.6
   200.2
   200.3
   200.3
   200.3
   200.3
   200.3
   200.6
   200.3
   200.1
   200.4
   200.4
   200.7
   200.3
   200.3
   200.4
   200.2
   200.4
   200.4
   200.4
   200.3
   200.1
   200.4
   200.3
   200.4
   200.3
   200.3
   200.3
   157.1
     0.0
     0.0
   142.5
   200.4
   200.3
   200.6
   200.3
   200.5
   200.3
   200.2
   192.1
   200.4
   200.6
   200.5
   200.3
   200.3
   200.6
   200.4
   200.5
   200.4
   200.4
   200.4
   200.3
   200.4
   200.4
   200.3
   200.3
   200.4
   200.4
   183.1
   149.0
     0.0
     0.0
   154.4
   184.6
   173.6
   200.6
   200.6
   200.6
   200.5
   200.2
   200.2
   168.5
   191.9
   197.5
   200.4
   200.4
   200.3
   200.4
   200.4
   200.2
   200.2
   200.6
   200.3
   200.5
   200.2
   200.6
   200.3
   200.3
   200.6
   200.3
   185.0
   141.3
     0.0
     0.0
   166.3
   123.3
   194.2
   150.7
   200.6
   200.3
   200.3
   154.8
   179.8
   200.2
   134.3
   131.4
   171.7
   189.8
   166.6
   200.4
   200.4
   200.2
   200.2
   186.6
   142.7
   200.4
   200.3
   200.2
   200.5
   183.5
   166.1
   200.2
   200.4
   129.4
   166.4
   165.7
     0.0
     0.0
   168.6
   158.7
   125.0
   159.5
   127.4
   136.3
   137.5
   132.9
   101.3
   157.2
   149.2
   147.7
   149.9
   134.3
   122.5
   156.3
   135.3
   115.4
   128.2
   139.3
   127.5
   118.8
   128.8
   130.6
   162.7
   167.9
   123.5
     0.0
     0.0
     0.0
     0.0
     0.0
     0.0
     0.0
     0.0
     0.0
     0.0
     0.0
     0.0
     0.0
     0.0
     0.0
     0.0
     0.0
     0.0
     0.0
     0.0
     0.0
     0.0
     0.0
     0.0
     0.0
     0.0
     0.0
     0.0
     0.0
     0.0
     0.0
     0.0
     0.0
     0.0
     0.0
     0.0
     0.0
     0.0
     0.0
     0.0
     0.0
     0.0
     0.0
     0.0
     0.0
     0.0
     0.0
     0.0
     0.0
     0.0
     0.0
     0.0
   181.1
   200.2
   200.5
   200.5
   200.5
   200.4
   200.2
   200.3
   200.3
   200.2
   200.3
   200.4
   200.4
   200.3
   200.2
   200.1
   191.5
   200.2
   200.3
   200.3
   200.4
   200.4
   200.2
   200.3
   200.4
   200.2
   200.2
   200.3
   200.3
   200.4
   200.3
   200.2
   200.1
   200.4
   200.2
   200.2
   200.4
   200.2
   200.3
   200.4
    85.7
   100.6
    62.0
    61.0
   114.1
   112.2
    99.6
    94.2
    96.1
    69.3
    95.3
    91.8
    94.9
    95.6
   105.3
    91.4
   105.2
    80.4
    82.6
    87.8
    97.6
   106.4
    86.1
   113.9
   101.6
   113.3
    96.0
   101.6
    86.6
   104.2
   114.0
    90.5
    90.6
    97.7
    77.9
    75.7
   102.9
   113.6
   101.8
    76.7
    99.4
   103.6
    94.7
    93.3
   109.5
    88.7
   103.7
    91.0
    74.4
    90.8
    91.1
   114.6
    99.5
   102.3
    89.1
   101.2
    96.3
    81.7
    97.3
    99.1
    83.6
    98.7
    81.7
    98.2
   111.9
   106.7
    88.9
    79.0
    96.5
    92.5
   103.2
    70.6
    86.8
    86.2
    70.1
    99.0
    82.9
   100.9
    71.3
   103.5
   103.7
    92.6
    89.5
    70.9
    53.8
    93.2
    88.9
    87.4
    89.6
   101.8
    76.4
   104.3
   111.7
    88.8
    96.3
    93.8
    91.4
    50.3
   101.3
    61.8
   200.5
   200.4
   200.7
   200.1
   200.9
   200.6
   200.7
   200.7
   200.3
   200.4
   200.4
   200.2
   200.3
   200.8
   200.2
   200.3
   200.2
   200.5
   200.4
   200.2
   200.2
   200.5
   200.5
   200.7
   200.7
   200.1
   200.2
   200.8
   200.4
   200.4
   200.6
   200.3
   200.4
   200.3
   200.3
   200.8
   200.5
   200.6
   200.1
   200.4
   200.5
   200.1
   200.2
   200.2
   200.3
   200.1
   200.4
   200.6
   200.2
   200.3
   200.2
   195.9
   200.2
   200.1
   200.3
   200.2
   200.3
   200.3
   200.4
   200.6
   200.3
   200.2
   200.4
   200.5
   200.5
   200.3
   200.3
   200.3
   200.3
   198.3
   200.3
   200.4
   200.2
   200.3
   200.2
   200.3
   200.3
   200.3
   200.3
   200.7
   200.1
   200.6
   200.4
   200.2
   200.3
   200.4
   200.2
   200.2
   200.4
   200.5
   200.1
   200.2
   200.4
   200.4
   200.3
   200.1
   200.2
   200.2
   200.1
   200.6
   200.2
   200.2
   200.1
   200.2
   200.3
   200.3
   200.2
   200.3
   200.3
   200.3
   200.3
   183.5
    77.3
   200.4
   194.0
   180.0
   182.4
   189.7
   189.9
   188.3
SCALARS discharge float 1
LOOKUP_TABLE default
  0.9968E+04
  0.1807E+07
  0.1271E+08
  0.1863E+07
  0.1109E+08
  0.1098E+07
  0.1223E+08
  0.1331E+07
  0.3054E+07
  0.1279E+07
  0.1612E+08
  0.2038E+07
  0.2449E+08
  0.1271E+07
  0.1679E+08
  0.1964E+07
  0.8274E+07
  0.1735E+07
  0.5987E+07
  0.1129E+07
  0.1597E+08
  0.1869E+07
  0.5106E+07
  0.9439E+06
  0.1619E+07
  0.2308E+08
  0.1882E+07
  0.5450E+07
  0.2076E+08
  0.1244E+07
  0.1076E+08
  0.1604E+07
  0.7935E+07
  0.1568E+07
  0.4580E+07
  0.9591E+06
  0.1003E+08
  0.3776E+07
  0.1603E+07
  0.7165E+07
  0.1060E+07
  0.7290E+07
  0.1085E+07
  0.4950E+07
  0.9934E+07
  0.8501E+06
  0.1885E+07
  0.9765E+06
  0.7589E+07
  0.1025E+07
  0.6970E+04
  0.3249E+05
  0.7012E+07
  0.2584E+07
  0.4272E+07
  0.2846E+07
  0.9723E+07
  0.2880E+07
  0.3515E+07
  0.4463E+07
  0.3460E+07
  0.1450E+07
  0.8427E+07
  0.2530E+07
  0.1308E+08
  0.3240E+07
  0.1093E+08
  0.1152E+07
  0.1631E+07
  0.2223E+07
  0.3807E+07
  0.3290E+07
  0.2014E+07
  0.1256E+07
  0.1979E+07
  0.1334E+07
  0.7827E+07
  0.4837E+07
  0.2912E+07
  0.7413E+04
  0.3092E+05
  0.2000E+07
  0.6213E+07
  0.5939E+07
  0.3358E+07
  0.9226E+07
  0.5940E+07
  0.4142E+07
  0.1834E+08
  0.4080E+07
  0.3487E+07
  0.2241E+07
  0.3963E+07
  0.3763E+07
  0.8432E+07
  0.4404E+07
  0.8768E+07
  0.4476E+07
  0.2091E+07
  0.4460E+07
  0.7176E+07
  0.1670E+07
  0.2772E+08
  0.3187E+07
  0.2102E+08
  0.1021E+07
  0.8738E+07
  0.4814E+07
  0.2444E+07
  0.3506E+07
  0.2927E+07
  0.1871E+05
  0.5749E+07
  0.2984E+07
  0.1459E+07
  0.1752E+07
  0.1203E+08
  0.3831E+07
  0.6002E+07
  0.2817E+07
  0.2783E+07
  0.1822E+08
  0.3232E+07
  0.5357E+07
  0.8122E+07
  0.3334E+07
  0.1642E+07
  0.3765E+07
  0.3293E+07
  0.2282E+07
  0.1734E+08
  0.8912E+07
  0.1980E+08
  0.1373E+08
  0.1396E+08
  0.2336E+07
  0.1187E+08
  0.1203E+08
  0.2278E+07
  0.9332E+07
  0.1418E+08
  0.4699E+07
  0.2505E+07
  0.2511E+08
  0.9774E+07
  0.2005E+07
  0.1799E+07
  0.4770E+07
  0.1634E+07
  0.1492E+08
  0.3052E+07
  0.3004E+07
  0.3657E+07
  0.2106E+08
  0.2853E+07
  0.1404E+08
  0.2836E+07
  0.8721E+07
  0.2854E+08
  0.8224E+07
  0.2399E+07
  0.1898E+07
  0.1444E+08
  0.8191E+07
  0.5844E+07
  0.4721E+07
  0.1994E+07
  0.1759E+07
  0.3518E+07
  0.7518E+07
  0.1299E+08
  0.8788E+07
  0.6354E+07
  0.9585E+07
  0.4101E+07
  0.1839E+07
  0.3878E+07
  0.1448E+08
  0.1022E+08
  0.1947E+07
  0.1352E+08
  0.4045E+08
  0.1502E+08
  0.3404E+07
  0.2819E+07
  0.2044E+07
  0.1530E+08
  0.4144E+07
  0.1139E+07
  0.3069E+07
  0.4383E+07
  0.9953E+07
  0.5411E+07
  0.2801E+07
  0.4278E+07
  0.9584E+07
  0.1559E+07
  0.7872E+07
  0.5498E+07
  0.7500E+07
  0.1721E+07
  0.3175E+05
  0.5302E+07
  0.2550E+07
  0.5057E+07
  0.1072E+08
  0.1223E+08
  0.1880E+07
  0.2590E+07
  0.8444E+07
  0.1662E+08
  0.4089E+07
  0.6011E+07
  0.3758E+07
  0.2672E+07
  0.1391E+08
  0.2823E+07
  0.1075E+08
  0.3519E+07
  0.4788E+07
  0.6737E+07
  0.2388E+08
  0.7026E+07
  0.3428E+07
  0.4267E+07
  0.1768E+07
  0.4180E+07
  0.2618E+08