# vtk DataFile Version 3.0
Landscape
ASCII
DATASET UNSTRUCTURED_GRID
POINTS       2515 float
           0.000           0.000           0.000
        1600.000           0.000           0.000
        3200.000           0.000           0.000
        4800.000           0.000           0.000
        6400.000           0.000           0.000
        8000.000           0.000           0.000
        9600.000           0.000           0.000
       11200.000           0.000           0.000
       12800.000           0.000           0.000
       14400.001           0.000           0.000
       16000.000           0.000           0.000
       17600.000           0.000           0.000
       19200.000           0.000           0.000
       20799.999           0.000           0.000
       22400.000           0.000           0.000
       24000.001           0.000           0.000
       25599.999           0.000           0.000
       27200.000           0.000           0.000
       28800.001           0.000           0.000
       30400.000           0.000           0.000
       32000.000           0.000           0.000
       33599.999           0.000           0.000
       35200.000           0.000           0.000
       36800.001           0.000           0.000
       38399.999           0.000           0.000
       40000.000           0.000           0.000
       41599.998           0.000           0.000
       43200.002           0.000           0.000
       44800.000           0.000           0.000
       46399.999           0.000           0.000
       48000.002           0.000           0.000
       49600.000           0.000           0.000
       51199.999           0.000           0.000
       52800.002           0.000           0.000
       54400.001           0.000           0.000
       55999.999           0.000           0.000
       57600.002           0.000           0.000
       59200.001           0.000           0.000
       60799.999           0.000           0.000
       62399.998           0.000           0.000
       64000.001           0.000           0.000
       65599.999           0.000           0.000
       67199.998           0.000           0.000
       68800.001           0.000           0.000
       70400.000           0.000           0.000
       71999.998           0.000           0.000
       73600.001           0.000           0.000
       75200.000           0.000           0.000
       76799.998           0.000           0.000
       78400.002           0.000           0.000
       80000.000           0.000           0.000
           0.000        1600.000           0.000
        1820.535        1836.129         198.917
        4436.497        1560.645         257.741
        8231.839        1585.959         210.475
       11192.297        1979.624         147.486
       14535.388        1860.001          62.536
       17224.315        1919.917         421.063
       20899.237        1802.853         343.757
       23731.335        1792.943         276.882
       27507.238        1603.221         235.242
       30065.602        1613.570         279.277
       33371.579        1994.991          26.760
       37099.539        1414.823         242.011
       38196.713        1837.356          95.481
       43418.644        1867.336          47.546
       49975.028        1831.460         204.357
       52954.322        1538.422         137.942
       55816.240        1531.934         180.550
       59004.449        1641.677          31.203
       60471.826        1510.939         332.170
       63784.513        1656.536         225.626
       67301.210        1771.228         157.606
       70381.695        1920.216         339.477
       72217.113        1448.806          86.773
       75069.462        1621.662         158.419
       78696.327        1722.356         253.697
       80000.000        1600.000           0.000
           0.000        3200.000           0.000
        5160.666        3300.186         194.927
        6043.012        3262.445         120.745
        9502.865        3552.908         327.066
       11056.006        2840.019         217.213
       14606.628        2840.755          89.669
       17562.634        3511.308         202.828
       18833.142        3539.080          59.193
       22026.411        2868.051         281.670
       25600.029        2863.835         100.885
       27192.156        3106.980         312.695
       30375.600        2888.881         265.731
       33224.678        2857.386          36.609
       36841.038        3085.085         168.418
       40238.304        3524.647          60.245
       43557.179        3128.631          73.925
       46228.872        2830.415         150.377
       48146.017        3166.706         460.232
       51153.215        2952.745          40.803
       53124.514        2981.904         252.167
       56001.007        3429.944         481.649
       59307.581        3225.477          54.723
       62124.444        3154.870         405.653
       64132.610        2904.590          92.472
       67439.924        3451.420         537.518
       68998.763        3472.006         154.848
       72219.436        2879.026         143.745
       75532.535        3132.944         342.601
       78652.387        3551.841         175.574
       80000.000        3200.000           0.000
           0.000        4800.000           0.000
        1400.060        4439.660         181.497
        4786.648        4655.285         356.849
       11454.778        4403.585         388.420
       14098.429        4923.032         155.658
       17912.789        5043.475         115.229
       20446.875        4859.061         101.572
       24108.597        4895.159         388.795
       27234.832        4431.193         269.123
       28696.423        4449.033         592.614
       32196.694        4589.490          59.489
       33867.228        4797.771         455.653
       34933.129        4760.558         555.864
       38067.139        5053.208         514.207
       41605.852        4581.133         295.937
       44854.687        5021.321         540.909
       48175.269        4416.823         411.637
       51163.202        5122.950          72.830
       54186.876        4703.411         535.791
       56317.818        4828.699         348.209
       59169.326        5108.954          83.154
       62536.999        4516.819         159.272
       65848.099        4445.450         408.189
       68694.276        4766.024         219.864
       71946.222        4752.098         240.973
       75433.121        5067.460         610.737
       78033.243        4664.320         188.296
       80000.000        4800.000           0.000
           0.000        6400.000           0.000
        2841.623        6773.290         237.843
        6245.685        6376.243         473.885
        7744.385        6030.238         303.838
       11368.686        6592.994         338.845
       14270.010        6704.916         317.400
       17330.427        6370.488         165.365
       19571.144        6573.041         413.212
       23763.572        6012.529         484.278
       27463.089        6427.221         510.702
       30273.002        6504.167         224.958
       33884.178        6077.220         229.176
       35390.886        6255.305         333.391
       38075.664        6205.118         501.638
       40048.604        6389.405         113.869
       43255.311        6307.072         156.516
       46126.564        6231.346         445.398
       48285.057        6596.744         310.707
       51294.080        6157.575          89.172
       54250.249        6543.358         586.242
       57921.865        6224.397         179.011
       59558.312        6004.572          98.576
       62425.662        6132.109         210.237
       65724.696        6341.122         684.816
       68956.079        6674.843         518.778
       72380.520        6490.972         442.630
       75318.037        6459.550         508.637
       78160.955        6114.578         249.676
       80000.000        6400.000           0.000
           0.000        8000.000           0.000
        3576.129        8217.635         271.557
        5061.593        7652.754         429.440
        8105.944        7856.844         477.632
       11121.498        7830.817         486.887
       14531.786        8256.985         537.002
       16036.950        7761.051         379.296
       19087.239        8020.414         547.833
       22626.171        7850.784         332.466
       25653.785        8135.625         445.052
       28733.316        8014.857         313.467
       30647.917        7622.140         101.144
       31669.813        8123.016         301.612
       35544.551        8083.612         437.037
       38771.621        7743.567         151.839
       41941.639        8315.419         450.448
       44649.095        8053.831         327.112
       48005.993        8300.872         534.807
       51584.272        8303.210         315.653
       52951.115        7723.006         323.742
       55834.828        8389.314         434.288
       58839.904        7674.993         127.899
       60484.772        8202.290         438.725
       63784.723        8145.830         295.849
       67326.420        8175.747         677.808
       68571.734        8073.207         658.338
       72193.925        8373.058         754.384
       73714.578        7878.720         438.566
       77044.523        8185.581         159.131
       78448.742        7636.455          87.301
       80000.000        8000.000           0.000
           0.000        9600.000           0.000
        3060.393        9702.503         102.016
        6737.398        9989.628         229.265
        9830.599        9930.901         428.553
       13186.894        9245.149         366.222
       15857.041        9479.674         623.557
[...]
POINT_DATA       2515
SCALARS height float 1
LOOKUP_TABLE default
     0.0
     0.0
     0.0
     0.0
     0.0
     0.0
     0.0
     0.0
     0.0
     0.0
     0.0
     0.0
     0.0
     0.0
     0.0
     0.0
     0.0
     0.0
     0.0
     0.0
     0.0
     0.0
     0.0
     0.0
     0.0
     0.0
     0.0
     0.0
     0.0
     0.0
     0.0
     0.0
     0.0
     0.0
     0.0
     0.0
     0.0
     0.0
     0.0
     0.0
     0.0
     0.0
     0.0
     0.0
     0.0
     0.0
     0.0
     0.0
     0.0
     0.0
     0.0
     0.0
   198.9
   257.7
   210.5
   147.5
    62.5
   421.1
   343.8
   276.9
   235.2
   279.3
    26.8
   242.0
    95.5
    47.5
   204.4
   137.9
   180.5
    31.2
   332.2
   225.6
   157.6
   339.5
    86.8
   158.4
   253.7
     0.0
     0.0
   194.9
   120.7
   327.1
   217.2
    89.7
   202.8
    59.2
   281.7
   100.9
   312.7
   265.7
    36.6
   168.4
    60.2
    73.9
   150.4
   460.2
    40.8
   252.2
   481.6
    54.7
   405.7
    92.5
   537.5
   154.8
   143.7
   342.6
   175.6
     0.0
     0.0
   181.5
   356.8
   388.4
   155.7
   115.2
   101.6
   388.8
   269.1
   592.6
    59.5
   455.7
   555.9
   514.2
   295.9
   540.9
   411.6
    72.8
   535.8
   348.2
    83.2
   159.3
   408.2
   219.9
   241.0
   610.7
   188.3
     0.0
     0.0
   237.8
   473.9
   303.8
   338.8
   317.4
   165.4
   413.2
   484.3
   510.7
   225.0
   229.2
   333.4
   501.6
   113.9
   156.5
   445.4
   310.7
    89.2
   586.2
   179.0
    98.6
   210.2
   684.8
   518.8
   442.6
   508.6
   249.7
     0.0
     0.0
   271.6
   429.4
   477.6
   486.9
   537.0
   379.3
   547.8
   332.5
   445.1
   313.5
   101.1
   301.6
   437.0
   151.8
   450.4
   327.1
   534.8
   315.7
   323.7
   434.3
   127.9
   438.7
   295.8
   677.8
   658.3
   754.4
   438.6
   159.1
    87.3
     0.0
     0.0
   102.0
   229.3
   428.6
   366.2
   623.6
   342.7
   284.0
   670.8
   695.1
   327.3
   121.5
   726.3
   470.0
   190.0
   586.0
   503.0
   542.6
   647.7
   154.2
   386.8
   792.2
   275.0
   701.0
   563.4
   583.5
   895.0
   812.7
   421.0
   260.4
     0.0
     0.0
   429.5
   423.7
   414.3
   713.1
   560.8
   555.1
   264.5
   495.7
   551.3
   142.1
   687.7
   677.4
   330.0
   379.5
   463.6
   541.7
   639.7
   279.3
   820.8
   668.5
   457.4
   191.2
   400.7
   548.9
   841.0
   453.9
   606.0
   366.4
   434.0
   233.5
     0.0
     0.0
   614.2
   654.9
   513.5
   727.4
   803.9
   767.3
   562.3
   667.7
   472.4
   840.1
   290.2
   207.8
   180.0
   379.0
   544.6
   298.2
   629.5
   341.8
   523.1
   465.3
   232.2
   774.8
   249.4
   233.3
   386.8
   742.6
   981.5
   357.1
   298.1
   179.7
   127.8
    80.7
     0.0
     0.0
   156.9
   324.8
   262.8
   368.0
   438.2
   543.0
   904.8
   415.8
   957.3
   334.9
   487.1
   222.4
   874.9
   730.3
   349.5
   723.6
   426.6
   779.6
   572.6
   638.5
   365.3
   265.8
   822.8
   727.0
   570.8
   539.2
   385.3
   358.1
     0.0
     0.0
    78.3
   151.8
   237.5
   384.3
   834.6
   761.0
   608.2
   973.8
   599.3
   528.0
   580.1
   258.3
   544.0
   739.9
   769.6
   602.4
   934.3
   361.0
   771.0
   665.5
   324.6
   452.6
   901.7
   728.3
   715.9
   626.2
   611.4
   232.6
   336.3
     0.0
     0.0
   375.2
   451.9
   588.9
   774.6
   847.8
   717.6
  1023.1
  1240.3
   968.1
   388.3
   573.3
   305.5
   396.7
   772.8
   473.8
   810.1
   998.5
   604.1
   414.9
   650.4
   509.1
   383.5
   850.2
   420.5
   292.5
   419.4
   367.1
    56.6
     0.0
     0.0
   380.7
   253.5
   285.3
   567.5
   475.8
   569.9
   645.3
  1245.8
   565.9
   750.6
   511.2
   366.8
   769.5
   674.6
   680.9
  1184.0
   995.2
   674.0
   820.4
   783.7
   621.3
   533.9
   988.3
   505.0
   720.4
   218.3
   133.2
   366.5
     0.0
     0.0
    50.0
    96.0
   173.8
   206.3
   226.1
   309.3
   463.0
  1153.6
   907.1
  1093.4
   990.0
   746.7
   861.0
  1182.7
  1185.0
  1491.3
  1057.5
   726.4
  1123.9
  1152.5
   982.5
   775.0
  1051.2
   664.4
   325.6
   608.7
   337.3
   414.4
   262.0
     0.0
     0.0
   305.4
   234.6
   324.1
   308.4
   475.6
   439.6
   905.9
  1247.9
  1423.1
  1536.2
  1348.6
   719.2
   949.5
  1313.8
  1120.1
  1644.7
  1431.4
  1109.9
  1291.7
  1363.0
  1103.7
  1245.6
   563.0
   759.9
   699.6
   800.7
   588.7
   393.6
   123.0
     0.0
     0.0
   309.9
   694.1
   631.6
   755.6
  1123.7
  1515.4
  1601.9
  1678.9
  1585.9
  1189.9
  1558.4
  1507.4
  1673.6
  1819.0
  1476.8
  1398.9
  1702.5
  1703.4
  1297.4
  1191.1
  1225.5
  1081.7
   812.9
   732.1
   475.6
   318.2
   251.4
     0.0
     0.0
   136.2
   301.7
   490.3
   791.6
   546.4
   584.6
   844.0
  1237.7
  1259.5
  1603.7
  1900.3
  1668.2
  1692.8
  1715.2
  1848.7
  1840.8
  1890.2
  1819.4
  1771.1
  1777.8
  1629.5
  1232.1
   765.4
   807.4
   567.5
   381.7
   251.8
   168.5
   127.7
    72.1
     0.0
     0.0
   219.1
   376.6
   357.4
   298.8
   415.1
   474.5
   537.7
   683.2
   845.2
  1005.8
  1719.8
  1900.3
  1900.5
  1897.2
  1866.5
  1900.3
  1892.5
  1852.0
  1900.3
  1799.2
  1129.3
   493.8
   735.6
   703.7
   695.0
   427.4
   308.1
   363.7
     0.0
     0.0
   375.3
   451.9
   108.2
   156.0
   210.4
   258.1
   348.0
   548.4
   796.5
  1631.3
  1900.3
  1900.5
  1900.1
  1900.4
  1900.3
  1900.2
  1900.3
  1748.3
  1143.8
   568.3
   345.8
   519.1
   573.5
   395.3
   252.0
   540.1
   178.2
     0.0
     0.0
   230.7
    60.0
   486.6
   264.8
   583.9
   598.1
   351.3
   465.7
   784.9
  1353.1
  1885.9
  1900.5
  1900.3
  1900.3
  1900.3
  1900.3
  1900.4
  1889.9
  1843.1
  1658.0
  1263.3
   952.1
   263.1
   242.4
   181.4
   135.3
    82.5
   307.6
   378.5
     0.0
     0.0
    39.1
    82.7
   149.4
   200.1
   449.4
   813.1
   616.6
   771.9
  1100.7
  1519.7
  1786.4
  1900.3
  1900.5
  1900.5
  1900.3
  1900.3
  1900.3
  1900.4
  1887.2
  1830.2
  1433.7
  1078.5
  1038.9
   328.6
   590.2
   367.9
   555.6
    59.2
   279.2
     0.0
     0.0
   246.2
   329.1
   331.6
   327.9
   436.8
   711.1
  1056.6
  1387.1
  1771.0
  1900.3
  1900.3
  1900.5
  1900.3
  1900.3
  1900.4
  1900.4
  1900.4
  1900.4
  1836.2
  1543.1
   726.9
   403.6
   793.0
   766.8
   622.2
   506.7
   101.7
    20.7
     0.0
     0.0
   217.5
   372.0
   370.9
   639.9
   568.0
   969.6
  1086.7
  1269.4
  1526.0
  1755.1
  1900.5
  1900.5
  1900.3
  1900.4
  1900.4
  1900.4
  1900.4
  1875.2
  1710.6
  1458.6
  1301.0
   700.8
  1024.2
   483.5
   314.3
   264.0
   141.2
   287.2
   360.3
     0.0
     0.0
   217.2
   250.7
   304.9
   371.4
   285.7
   450.2
   803.4
   867.0
  1403.9
  1406.8
  1844.9
  1900.5
  1900.3
  1900.4
  1900.4
  1900.3
  1900.4
  1900.4
  1642.0
  1211.9
  1069.8
   841.6
   595.3
   518.6
   378.1
   452.9
   657.5
   131.1
     0.0
     0.0
    35.3
    68.3
   100.8
   122.4
   198.1
   296.7
   484.2
   972.0
   910.4
  1628.7
  1900.5
  1900.3
  1900.4
  1900.2
  1900.3
  1900.4
  1900.4
  1811.3
  1567.2
   801.1
   748.3
   834.6
   513.9
   530.5
   308.3
     0.0
     0.0
   226.4
   253.2
   255.4
   509.4
   179.0
   556.4
   437.5
   857.8
   679.5
  1049.3
  1374.5
  1761.6
  1900.4
  1900.4
  1900.4
  1900.4
  1900.4
  1900.2
  1900.4
  1786.5
  1455.6
  1365.2
   975.2
   440.7
   438.2
   387.4
   301.7
   369.3
   418.5
   142.6
     0.0
     0.0
   546.2
   439.2
   355.2
   440.5
   366.0
   233.7
   260.7
   294.3
   381.0
   433.3
  1084.5
  1611.2
  1900.4
  1900.4
  1900.4
  1900.4
  1900.2
  1900.2
  1808.0
  1294.8
   724.2
   760.5
   551.5
   249.2
   208.7
   160.3
   126.8
   411.7
   210.6
     0.0
     0.0
   267.0
   233.5
   181.9
   490.6
   807.4
   593.9
   324.8
   480.6
   368.1
   814.6
   772.1
  1543.9
  1884.7
  1900.4
  1900.4
  1900.3
  1900.3
  1900.3
  1900.2
  1624.3
   935.8
   748.8
   418.3
   308.2
   605.0
   527.8
   461.2
    75.0
   175.4
     0.0
     0.0
    86.6
   364.4
   329.5
   464.9
   953.9
   722.6
   864.3
   753.9
   992.2
  1329.2
  1200.8
  1430.2
  1818.8
  1869.0
  1900.4
  1900.4
  1900.3
  1900.3
  1900.4
  1676.2
  1105.2
  1106.0
  1083.4
   949.7
   479.5
   369.8
   242.7
   179.0
    88.5
    58.6
    34.3
     0.0
     0.0
    69.7
   233.8
   671.8
   748.2
   646.8
   499.2
   725.6
  1087.8
   748.7
  1468.7
  1723.8
  1900.4
  1900.4
  1900.4
  1900.4
  1900.3
  1900.3
  1900.3
  1900.3
  1763.3
  1446.0
  1104.0
   758.2
   619.3
   496.3
   302.0
   243.0
   478.8
   218.6
   222.7
     0.0
     0.0
   206.9
   475.3
   368.0
   347.2
   325.7
   509.9
  1082.3
  1100.1
  1718.5
  1870.1
  1900.4
  1900.4
  1900.3
  1900.3
  1900.3
  1899.9
  1899.3
  1797.7
  1412.7
  1220.6
   924.2
   703.8
   729.4
   413.2
   557.5
   302.6
     0.0
     0.0
   206.7
   501.5
   207.7
   216.0
   587.1
   749.1
   691.9
  1032.3
  1601.1
  1805.9
  1900.4
  1900.2
  1900.2
  1900.3
  1900.3
  1900.3
  1900.4
  1896.5
  1888.8
  1899.7
  1633.3
   997.3
   511.2
   690.4
   545.7
   496.5
   267.8
   369.8
     0.0
     0.0
   145.1
   337.8
   235.6
   123.9
   169.3
   497.8
   385.9
   813.0
   660.8
  1333.2
  1875.9
  1829.0
  1900.4
  1900.3
  1900.3
  1900.4
  1900.4
  1900.1
  1830.7
  1891.2
  1617.2
  1216.7
   864.1
   339.6
   244.5
   168.3
   108.3
    52.0
     0.0
     0.0
    26.1
    61.9
    79.5
   409.4
   209.9
   271.4
   322.9
   461.2
   976.1
  1559.5
  1666.1
  1707.9
  1900.4
  1869.2
  1900.2
  1900.4
  1884.4
  1720.8
  1814.8
  1698.8
   823.2
   636.7
   800.8
   647.8
   472.2
   545.5
   487.7
   482.9
     0.0
     0.0
   395.8
   193.9
   238.2
   663.0
   334.2
   463.5
   335.8
   768.6
   928.0
  1025.1
  1547.2
  1156.8
  1768.1
  1747.1
  1841.9
  1900.4
  1621.8
  1621.3
  1468.3
  1724.8
  1343.4
  1055.8
   950.2
   550.8
   443.7
   272.1
   454.1
   107.5
    55.2
     0.0
     0.0
   407.7
   557.5
   424.9
   772.9
   493.4
   606.3
   486.6
   982.0
   593.8
   988.9
   770.5
  1523.7
  1546.7
  1470.1
  1466.5
  1841.3
  1662.1
  1279.8
  1339.9
  1662.7
  1651.1
  1289.0
  1281.4
   987.0
   934.3
   563.3
   325.2
   163.0
   436.6
     0.0
     0.0
    72.5
   373.4
   417.3
   507.5
   609.5
   883.6
   954.3
   857.9
   916.7
   476.4
   529.6
  1323.8
  1411.4
  1221.9
  1458.3
  1729.8
   978.7
   885.8
  1527.8
  1710.5
   930.9
   951.9
   582.1
   581.1
   680.8
   265.7
   279.7
     0.0
     0.0
    98.8
   169.1
   256.4
   371.4
   438.4
   738.5
   590.1
   341.3
   837.6
  1307.5
  1006.9
   615.4
  1173.6
  1225.9
  1295.9
   932.1
   574.1
  1031.6
  1229.2
  1439.1
  1074.1
   492.6
   383.6
   293.0
   543.5
   419.1
   370.6
   269.4
     0.0
     0.0
   208.1
   451.3
   453.5
   376.9
   692.2
   508.5
   784.2
  1061.2
   980.4
   700.8
   600.2
   852.6
  1193.4
   940.1
   437.7
   713.1
  1361.5
   679.1
   638.0
   766.6
  1256.7
  1393.7
   746.3
   539.3
   604.3
   209.8
   170.3
   111.7
   190.1
   435.5
     0.0
     0.0
   107.3
   476.9
   602.2
   767.2
   895.3
   949.4
   608.2
   757.8
   268.7
   411.1
  1003.0
   536.4
   777.0
   792.8
  1033.7
   782.1
   683.5
   441.7
   565.2
   942.4
  1298.2
   923.2
   852.8
   592.7
   557.6
   459.6
    58.3
    32.5
     0.0
     0.0
    54.0
   436.4
   191.3
   321.3
   504.5
   651.2
   526.5
   740.9
   426.1
   444.2
   233.8
   484.3
   741.0
   302.5
   704.9
   640.3
   957.7
   409.1
   479.6
   401.3
   971.3
  1206.7
  1158.7
   835.6
   536.5
   335.3
   209.2
   162.4
   126.4
   304.6
     0.0
     0.0
   203.3
   441.0
   509.0
   495.6
   614.0
   516.1
   463.1
   359.3
   547.1
   305.8
   539.5
   481.8
   240.0
   312.6
   560.1
   224.6
   583.0
   327.8
  1012.7
   825.5
   972.0
   621.0
   857.5
   551.5
   571.0
   260.8
   404.9
   180.7
     0.0
     0.0
   280.4
   356.0
   313.6
   850.0
   862.8
   731.3
   634.2
   471.6
   271.6
   464.7
   180.1
   560.7
   884.9
   311.1
   230.0
   495.5
   785.0
   314.0
   570.9
   289.1
   753.5
   965.3
   749.6
   729.3
   932.1
   842.5
   811.0
   380.7
   393.2
   156.0
     0.0
     0.0
    95.2
   480.9
   525.5
   594.5
   669.4
   487.3
   575.6
   357.6
   585.0
   157.4
   394.6
   887.4
   351.2
   465.8
   691.1
   685.6
   621.5
   350.5
   505.1
   234.3
   681.9
   585.8
   812.8
   351.0
   593.4
   712.6
   365.4
     0.0
     0.0
   211.2
   171.5
   312.5
   511.6
   678.4
   247.1
   332.8
   595.0
   189.2
   123.1
   277.4
   495.4
   143.9
   441.0
   268.2
   503.0
   277.4
   176.6
   490.5
   328.1
   797.3
   550.4
   493.7
   362.4
   506.5
   417.8
   180.0
   252.5
     0.0
     0.0
   495.3
   248.2
   596.5
   322.4
   661.9
   187.3
   420.1
   127.0
   407.0
   704.8
   459.0
   116.7
   157.2
   701.4
   518.3
    96.5
   220.3
   420.6
   273.6
   460.0
   520.3
   630.8
   275.3
   838.2
   797.5
   427.9
    99.2
     0.0
     0.0
   170.8
   475.2
   306.6
   256.3
   325.9
   243.8
   537.9
   357.9
    82.1
   383.4
   644.7
   536.4
   273.3
    88.7
   569.8
   439.1
   293.0
   102.3
   272.5
   197.6
   293.3
   170.8
   300.5
   214.3
   494.4
   369.7
   446.8
   241.4
     0.0
     0.0
   246.2
   435.6
   410.0
   275.2
   129.2
   372.4
   315.9
   145.5
   518.2
    57.2
   170.3
   432.5
   456.2
   281.5
    64.4
   265.4
   535.7
   196.5
    53.8
   360.7
   137.5
   435.2
   125.7
   582.3
   136.5
   744.3
   276.2
   353.6
   273.1
     0.0
     0.0
   345.0
   175.9
   482.3
    75.5
   383.2
   342.3
   447.0
    57.0
   306.4
   213.6
    39.0
   150.8
   244.7
   333.3
   396.8
   308.8
    45.0
   485.2
   118.7
   296.5
    30.5
   511.2
   391.2
    81.6
   160.3
   344.2
    77.5
   416.9
   285.2
   121.0
   232.5
   327.7
     0.0
     0.0
   378.4
   253.0
   192.7
   291.8
   187.7
   307.9
   169.8
   289.2
    27.9
   297.5
   155.5
   151.5
    28.5
   293.0
    76.7
   301.4
   229.9
   116.6
    51.0
    90.3
    58.9
   229.6
   151.9
   124.9
   329.3
   373.8
   177.1
     0.0
     0.0
     0.0
     0.0
     0.0
     0.0
     0.0
     0.0
     0.0
     0.0
     0.0
     0.0
     0.0
     0.0
     0.0
     0.0
     0.0
     0.0
     0.0
     0.0
     0.0
     0.0
     0.0
     0.0
     0.0
     0.0
     0.0
     0.0
     0.0
     0.0
     0.0
     0.0
     0.0
     0.0
     0.0
     0.0
     0.0
     0.0
     0.0
     0.0
     0.0
     0.0
     0.0
     0.0
     0.0
     0.0
     0.0
     0.0
     0.0
     0.0
     0.0
     0.0
   102.3
   421.6
   212.2
   674.2
   255.0
   386.3
   219.1
   375.9
   763.2
   959.3
   549.9
  1837.8
  1900.3
   403.3
    76.4
   456.1
   295.0
  1053.5
  1900.4
  1096.5
  1488.7
   590.5
  1880.9
   576.4
  1900.2
  1786.1
  1411.1
   527.0
  1002.4
   314.6
   654.8
   681.6
   411.4
   595.4
   418.9
   297.5
    61.2
   308.4
    12.2
    45.5
    35.9
    78.7
    42.7
    57.9
    29.2
   123.9
    50.4
    27.3
    74.1
   159.6
    19.6
   171.7
    85.4
    95.6
   127.4
    50.2
   173.8
   109.6
   176.5
    38.1
   153.9
    38.3
   140.6
    25.8
   174.8
   174.8
    23.1
   121.7
    70.4
    33.2
    94.5
   144.2
   313.4
   155.9
    20.6
   103.7
   339.3
    18.1
   101.0
   185.8
   110.4
    89.4
    43.1
    16.8
    96.8
   131.0
   179.8
    24.9
   199.4
   132.3
   178.4
   176.1
    34.3
   131.4
   124.2
    91.1
    88.0
   125.4
    43.8
   111.6
   202.7
    45.6
    76.1
   129.6
   113.2
   146.3
    87.2
    38.0
    27.5
    69.6
   146.6
    15.8
    39.5
    57.1
   143.7
   148.6
    96.3
    82.4
    71.7
    14.0
   128.2
    74.5
    74.4
    14.3
   155.0
    32.1
   156.0
   308.5
   156.6
   151.8
   138.7
   129.7
    27.6
   188.8
    26.9
   587.3
   413.5
   659.8
   119.1
   484.3
   213.3
   719.1
   553.2
   378.2
   477.7
   992.1
   885.7
   643.2
   750.9
   988.6
  1120.8
   475.6
   509.9
   687.3
   493.0
  1089.7
   388.1
  1900.4
  1248.5
   670.8
  1900.2
  1259.1
  1874.4
  1900.4
   739.9
   768.5
  1900.4
  1461.3
   801.8
  1900.4
  1899.9
   839.6
   305.8
   205.3
  1431.5
   808.9
  1123.5
   425.7
   973.7
   856.2
   783.6
  1379.3
   471.4
   825.5
   376.9
   626.7
   758.1
   498.0
   905.2
   315.4
   374.6
   395.8
   458.9
   382.2
   399.5
   561.3
   453.3
   632.9
   193.9
   706.2
   668.7
   793.6
   595.3
   295.5
   471.3
   216.0
   672.2
   744.8
   874.4
   533.1
   558.8
   305.5
  1116.7
  1245.1
   724.2
  1900.2
  1900.4
  1900.4
   373.4
   556.8
  1196.9
  1334.8
  1011.4
   413.5
  1171.8
   657.8
   937.5
   604.5
   330.7
   397.8
   570.1
   503.9
   357.8
    77.3
  1900.4
   184.4
   154.1
   198.5
   140.8
    79.7
   159.5
   343.5
   720.7
  1900.3
   136.5
   185.0
   191.1
    97.2
   146.9
    42.7
   183.4
   143.9
    90.1
   279.0
   185.2
   513.4
   106.3
   443.8
    40.7
    62.1
   296.0
   155.6
    81.3
   265.6
   445.7
   135.8
   132.1
   293.9
   251.2
   190.8
   163.9
   333.4
   275.0
   505.0
    72.2
   241.3
   381.7
   264.7
   436.1
   221.8
   220.7
   283.2
   457.7
   115.3
   201.3
    51.2
   132.1
   354.8
   315.9
   180.1
   207.2
   206.9
   132.6
   240.4
    90.5
    84.3
   116.5
   437.4
   134.4
    78.9
   537.0
    83.4
   188.0
   181.7
   322.9
   129.7
   470.8
   135.7
   277.0
   148.5
   505.9
   177.3
   187.5
   105.5
   390.3
   280.7
   120.5
   504.6
   349.6
   178.1
   477.7
   531.6
   395.1
   209.3
   100.8
   248.9
   255.8
   289.5
   507.1
    92.5
   327.3
    73.1
   312.2
   167.4
    78.2
   120.1
   183.1
   329.0
    98.6
   212.4
   567.4
    76.9
   327.7
   160.1
   100.8
   244.4
   153.2
   150.6
   225.6
   350.1
    90.1
   169.0
    83.6
   242.5
   586.0
   250.1
   116.0
    84.8
   182.2
   386.0
   118.4
   203.3
   427.9
   573.0
   430.0
   459.0
   205.0
   232.4
   534.0
   267.5
   485.9
   459.3
   338.8
   146.7
   247.2
   173.4
   161.1
   280.5
   287.2
   192.2
   157.9
   198.0
   131.3
    89.0
   254.5
   172.7
   290.0
   187.2
   559.3
   182.9
   152.8
   274.8
   601.2
   263.0
   138.1
   300.0
   146.6
    97.8
   184.6
   307.6
   323.6
   147.7
   310.8
   208.8
   439.4
   388.0
   411.7
   246.2
   412.7
   139.5
   501.7
   303.6
   378.9
   581.1
   529.5
   145.2
   136.9
   246.2
   304.1
   237.0
   321.9
   207.2
   354.0
   409.9
   272.3
   331.6
   197.4
   125.7
   199.5
   255.1
   717.0
   289.0
   268.6
   451.2
   469.1
   116.2
   406.8
   172.7
   269.4
   225.8
   517.0
   212.7
   374.2
   167.8
   382.3
   506.9
   360.2
   369.6
   553.2
   532.7
   181.4
   336.9
   410.2
   277.9
   530.8
   320.6
   360.7
   215.9
   313.5
   263.0
   142.9
   417.1
   206.8
   334.1
   221.7
   387.9
   515.6
   501.0
   353.8
   231.6
   187.9
   364.6
   444.2
   706.9
   599.8
   622.4
   266.6
   185.5
   644.6
   610.3
   189.6
   493.3
   307.1
   414.8
   230.1
   232.4
   434.8
   326.8
   462.9
   403.0
   145.4
   343.7
   462.4
   173.7
   161.2
   119.8
   309.9
   358.8
   309.3
   477.0
   701.3
   168.5
   429.6
   500.1
   521.5
   664.5
   555.5
   600.9
   500.9
   182.8
   545.5
   206.7
   653.5
   397.5
   395.6
   244.8
   807.8
   266.5
   319.2
   450.2
   671.2
   431.8
   591.8
   262.6
   453.7
   417.8
   418.5
   445.9
   729.6
   625.0
   214.6
   512.6
   257.4
   311.9
   515.2
   185.0
   355.9
   613.6
   186.3
   307.3
   158.1
   163.9
   187.1
   568.4
   296.9
   457.9
   438.9
   642.0
   616.7
   369.1
   616.6
   307.2
   383.6
   247.4
   261.4
   330.0
   387.9
   449.0
   634.6
   312.3
   345.6
   771.9
   358.3
   467.5
   195.1
   395.8
   588.1
   245.5
   212.4
   371.2
   280.2
   474.5
   368.5
   286.0
   378.0
   240.0
   324.2
   425.7
   603.9
   408.5
   552.0
   458.8
   550.2
   260.5
   548.6
   200.8
   575.9
   347.4
   504.1
   437.4
   204.7
   394.8
   712.7
   232.4
   357.6
   434.3
   821.1
   388.1
   435.5
   556.0
   408.2
   535.7
   661.2
   689.8
   590.0
   390.1
   556.0
   424.1
   338.6
   461.9
   330.8
   391.6
   413.3
   527.6
   285.3
   769.6
   757.4
   711.1
   446.2
   506.1
   412.1