# vtk DataFile Version 3.0
Landscape
ASCII
DATASET UNSTRUCTURED_GRID
POINTS      28470 float
           0.000           0.000           0.000
        1600.000           0.000           0.000
           0.000        1600.000           0.000
         533.333         533.333           0.000
        1820.535        1836.129         195.675
        1600.000           0.000           0.000
        3200.000           0.000           0.000
        2206.845         612.043         371.507
        1768.900        1406.232         371.507
        4436.497        1560.645         240.126
        3200.000           0.000           0.000
        4800.000           0.000           0.000
        4145.499         520.215         359.619
        4502.276        1278.232         359.619
        6234.052        1737.813          58.570
        4800.000           0.000           0.000
        6400.000           0.000           0.000
        5811.350         579.271         367.531
        5681.950        1068.765         367.531
        8231.839        1585.959         209.977
        6400.000           0.000           0.000
        8000.000           0.000           0.000
        8015.329        1248.730         383.715
        7848.954        1254.467         414.351
        8181.703        1242.993         353.078
        8231.839        1585.959         209.977
        8000.000           0.000           0.000
        9600.000           0.000           0.000
        8610.613         528.653         353.078
        8181.703        1242.993         353.078
       10114.256        2299.635         184.523
       10506.534         877.165          61.026
       11192.297        1979.624         146.887
       10604.362        1718.808         391.500
       10606.265        2153.585         391.500
       11192.297        1979.624         146.887
       11200.000           0.000           0.000
       12800.000           0.000           0.000
       11402.489        1443.218         391.275
       11194.468        1421.774         370.986
       11610.511        1464.661         411.563
       14535.388        1860.001          62.710
       12800.000           0.000           0.000
       14400.001           0.000           0.000
       14181.308        1157.397         364.044
       13878.243        1155.668         386.093
       14484.372        1159.126         341.995
       14535.388        1860.001          62.710
       14400.001           0.000           0.000
       16000.000           0.000           0.000
       14978.463         620.000         341.995
       14484.372        1159.126         341.995
       17224.315        1919.917         426.240
       16000.000           0.000           0.000
       17600.000           0.000           0.000
       16941.438         639.972         438.148
       17218.994        1911.572         438.148
       18961.790        1751.968          28.835
       17600.000           0.000           0.000
       19200.000           0.000           0.000
       18587.263         583.989         353.030
       18370.338         991.055         353.030
        4436.497        1560.645         240.126
        1820.535        1836.129         195.675
        3200.000           0.000           0.000
        3152.344        1132.258         575.507
        3330.469        1677.119         575.507
       23731.335        1792.943         269.504
       22400.000           0.000           0.000
       24000.001           0.000           0.000
       23377.112         597.648         382.976
       23771.585        1524.339         382.976
       25712.931        1511.197          50.331
       24000.001           0.000           0.000
       25599.999           0.000           0.000
       25104.310         503.732         366.259
       25029.367         908.137         366.259
       25712.931        1511.197          50.331
       27200.000           0.000           0.000
       27507.238        1603.221         233.002
       26806.723        1038.139         378.999
       26307.751         906.726         356.081
       27448.955        1299.090         361.746
       27046.130        1579.572         420.026
       27507.238        1603.221         233.002
       27200.000           0.000           0.000
       28800.001           0.000           0.000
       27835.746         534.407         361.746
       27448.955        1299.090         361.746
       30065.602        1613.570         288.867
       28800.001           0.000           0.000
       30400.000           0.000           0.000
       29755.201         537.857         404.609
       29897.267        1398.951         404.609
       31040.554         771.051         297.537
       30065.602        1613.570         288.867
       30400.000           0.000           0.000
       30791.354         968.418         433.742
       31023.162         750.115         316.968
       30559.546        1186.721         550.516
       31415.600        1997.898         136.154
       33371.579        1994.991          27.288
       33224.678        2857.386          37.383
       32049.068        2143.565         401.976
       32067.287        1996.929         396.307
       32030.848        2290.200         407.645
       34548.701        1811.800         200.932
       34459.486        2336.808         156.261
       33371.579        1994.991          27.288
       34126.589        2047.867         291.093
       34513.851        2016.882         291.093
        6234.052        1737.813          58.570
        6043.012        3262.445         121.423
        5160.666        3300.186         202.926
        5812.577        2766.815         342.239
        5494.539        3285.905         342.239
       37099.539        1414.823         251.300
       35200.000           0.000           0.000
       36800.001           0.000           0.000
       36366.513         471.608         420.078
       36769.998        1169.373         420.078
       37099.539        1414.823         251.300
       36800.001           0.000           0.000
       38399.999           0.000           0.000
       37433.180         471.608         389.942
       37324.491        1170.089         389.942
       39191.316         917.871          43.278
       38399.999           0.000           0.000
       40000.000           0.000           0.000
       39197.105         305.957         259.211
       38840.883         511.394         259.211
       40125.312        1643.514          30.274
       39191.316         917.871          43.278
       40000.000           0.000           0.000
       39772.209         853.795         273.833
       39645.198        1270.503         273.833
       43418.644        1867.336          45.865
       41599.998           0.000           0.000
       43200.002           0.000           0.000
       43001.665        1103.912         361.698
       42673.929        1102.683         385.663
       43329.400        1105.141         337.733
       43418.644        1867.336          45.865
       43200.002           0.000           0.000
       44800.000           0.000           0.000
       43806.215         622.445         337.733
       43329.400        1105.141         337.733
       34548.701        1811.800         200.932
       37099.539        1414.823         251.300
       36841.038        3085.085         161.972
       36163.093        2103.903         547.737
       36050.429        1578.092         583.677
       37005.765        2020.731         497.711
       35524.994        2354.085         542.422
       48116.282        1628.322         157.977
       49600.000           0.000           0.000
       49975.028        1831.460         209.805
       49230.437        1153.260         429.008
       48513.466        1192.428         394.211
       49892.227        1427.099         378.874
       49221.986        1749.161         499.604
       10114.256        2299.635         184.523
        8231.839        1585.959         209.977
       10506.534         877.165          61.026
        8963.690        1651.715         494.302
        9082.539        1908.483         522.192
        8844.841        1394.948         466.413
       52954.322        1538.422         136.852
       52800.002           0.000           0.000
       54400.001           0.000           0.000
       53384.775         512.807         332.051
       52906.144        1058.140         332.051
       55816.240        1531.934         179.964
       54400.001           0.000           0.000
       55999.999           0.000           0.000
       55662.907        1142.129         366.713
       55462.018        1148.775         390.216
       55863.795        1135.483         343.210
       55816.240        1531.934         179.964
       55999.999           0.000           0.000
       57600.002           0.000           0.000
       56472.081         510.645         343.210
       55863.795        1135.483         343.210
       38196.713        1837.356          91.490
       37099.539        1414.823         251.300
       38399.999           0.000           0.000
       37898.751        1084.060         372.783
       38267.637        1196.325         348.870
       37324.491        1170.089         389.942
       37419.895        1538.196         394.209
       59004.449        1641.677          30.574
       57600.002           0.000           0.000
       59200.001           0.000           0.000
       58601.484         547.226         313.163
       59089.439         928.177         313.163
       25712.931        1511.197          50.331
       25600.029        2863.835         100.624
       23731.335        1792.943         269.504
       24184.532        1900.982         467.637
       24213.613        2069.322         492.109
       24155.450        1732.642         443.165
       63784.513        1656.536         228.511
[...]
POINT_DATA      28470
SCALARS height float 1
LOOKUP_TABLE default
     0.0
     0.0
     0.0
     0.0
   195.7
     0.0
     0.0
   371.5
   371.5
   240.1
     0.0
     0.0
   359.6
   359.6
    58.6
     0.0
     0.0
   367.5
   367.5
   210.0
     0.0
     0.0
   383.7
   414.4
   353.1
   210.0
     0.0
     0.0
   353.1
   353.1
   184.5
    61.0
   146.9
   391.5
   391.5
   146.9
     0.0
     0.0
   391.3
   371.0
   411.6
    62.7
     0.0
     0.0
   364.0
   386.1
   342.0
    62.7
     0.0
     0.0
   342.0
   342.0
   426.2
     0.0
     0.0
   438.1
   438.1
    28.8
     0.0
     0.0
   353.0
   353.0
   240.1
   195.7
     0.0
   575.5
   575.5
   269.5
     0.0
     0.0
   383.0
   383.0
    50.3
     0.0
     0.0
   366.3
   366.3
    50.3
     0.0
   233.0
   379.0
   356.1
   361.7
   420.0
   233.0
     0.0
     0.0
   361.7
   361.7
   288.9
     0.0
     0.0
   404.6
   404.6
   297.5
   288.9
     0.0
   433.7
   317.0
   550.5
   136.2
    27.3
    37.4
   402.0
   396.3
   407.6
   200.9
   156.3
    27.3
   291.1
   291.1
    58.6
   121.4
   202.9
   342.2
   342.2
   251.3
     0.0
     0.0
   420.1
   420.1
   251.3
     0.0
     0.0
   389.9
   389.9
    43.3
     0.0
     0.0
   259.2
   259.2
    30.3
    43.3
     0.0
   273.8
   273.8
    45.9
     0.0
     0.0
   361.7
   385.7
   337.7
    45.9
     0.0
     0.0
   337.7
   337.7
   200.9
   251.3
   162.0
   547.7
   583.7
   497.7
   542.4
   158.0
     0.0
   209.8
   429.0
   394.2
   378.9
   499.6
   184.5
   210.0
    61.0
   494.3
   522.2
   466.4
   136.9
     0.0
     0.0
   332.1
   332.1
   180.0
     0.0
     0.0
   366.7
   390.2
   343.2
   180.0
     0.0
     0.0
   343.2
   343.2
    91.5
   251.3
     0.0
   372.8
   348.9
   389.9
   394.2
    30.6
     0.0
     0.0
   313.2
   313.2
    50.3
   100.6
   269.5
   467.6
   492.1
   443.2
   228.5
     0.0
     0.0
   388.5
   407.9
   369.0
    35.7
     0.0
     0.0
   239.0
   239.0
   277.7
    77.8
   155.4
   495.4
   495.4
    62.7
   146.9
     0.0
   439.4
   386.1
   411.6
   497.7
    87.1
     0.0
     0.0
   338.1
   309.9
   366.3
   158.8
     0.0
     0.0
   373.1
   397.9
   348.2
    77.5
   358.6
   158.8
   384.7
   384.7
   331.6
    30.6
     0.0
   358.4
   313.2
   403.6
   169.6
   396.2
   331.6
   620.2
   701.4
   539.0
    28.8
   338.2
    58.4
   469.0
   434.7
   503.2
   123.9
   281.0
   338.2
   527.3
   592.2
   462.5
   426.2
    62.7
     0.0
   478.0
   438.1
   517.9
    61.0
   210.0
     0.0
   466.4
   466.4
   195.7
     0.0
     0.0
   442.4
   371.5
   513.2
   338.2
     0.0
     0.0
   416.5
   437.5
   395.5
   154.7
     0.0
   123.9
   300.3
   300.3
    21.3
     0.0
     0.0
   344.1
   344.1
    21.3
     0.0
   136.9
   357.1
   352.6
   332.1
   383.0
    58.6
   240.1
     0.0
   386.1
   367.5
   359.6
   428.3
    21.3
   136.9
    44.5
   408.7
   434.5
   383.0
    87.1
     0.0
     0.0
   309.9
   309.9
    89.9
   216.1
   146.9
   532.2
   519.7
   544.7
   180.0
   136.9
     0.0
   462.3
   390.2
   534.4
   288.9
   233.0
     0.0
   508.6
   404.6
   612.6
   385.1
   216.1
    89.9
   558.1
   544.7
   571.5
   331.6
     0.0
     0.0
   380.5
   380.5
   169.6
     0.0
     0.0
   403.0
   403.0
   163.6
   455.1
   100.6
   495.3
   495.3
   100.2
   338.2
   281.0
   548.1
   555.0
   592.2
   518.4
   204.2
    89.9
   426.2
   537.7
   543.3
   561.7
   519.8
    28.8
    58.4
   204.2
   432.2
   432.2
   136.2
    12.5
    27.3
   396.3
   396.3
    73.9
   149.9
    71.4
   458.7
   476.3
   441.0
   158.0
   448.5
   149.9
   523.1
   549.8
   496.3
   162.0
   251.3
    91.5
   446.0
   394.2
   497.7
    30.3
    45.9
    99.1
   443.9
   441.4
   418.6
   463.4
    30.3
    91.5
    43.3
   328.7
   383.6
   273.8
   266.8
   100.6
   315.0
   505.6
   459.7
   551.4
   158.0
    73.9
     0.0
   404.1
   326.8
   405.2
   473.0
   155.4
     0.0
     0.0
   384.2
   361.5
   406.9
    97.5
    42.8
   337.1
   419.9
   419.9
   249.9
   136.9
   180.0
   564.2
   534.4
   594.0
    73.9
    71.4
    45.9
   422.0
   402.9
   441.0
    30.6
   180.0
     0.0
   489.1
   489.1
    87.1
   337.1
     0.0
   447.8
   412.3
   483.2
   158.8
    87.1
     0.0
   434.5
   397.9
   366.3
   502.7
   169.6
   331.6
     0.0
   453.3
   403.0
   380.5
   539.0
   158.0
   149.9
    73.9
   484.7
   496.3
   473.0
   219.7
   448.5
   409.3
   604.0
   529.8
   678.3
    44.5
   448.5
   209.8
   490.1
   617.6
   398.2
   528.7
   277.7
    35.7
    77.8
   448.4
   503.8
   378.1
   495.4
    42.8
   155.4
     0.0
   428.2
   406.9
   449.5
   191.4
   210.0
   326.1
   585.4
   569.9
   598.9
   592.0
   253.4
     0.0
     0.0
   412.4
   442.0
   382.8
   253.4
     0.0
     0.0
   498.8
   382.8
   614.8
   144.2
    87.1
   158.8
   523.7
   502.7
   544.7
   358.6
   253.4
   175.5
   595.6
   652.6
   525.0
   630.9
   144.2
   155.2
   337.1
   545.9
   547.1
   539.1
   549.5
     0.0
   253.4
     0.0
   538.2
   614.8
   461.5
    58.6
   202.9
   240.1
   482.7
   537.0
   428.3
   184.5
   216.1
   326.1
   487.4
   556.2
   418.6
   202.9
   195.7
   240.1
   580.0
   603.0
   575.5
   537.0
     0.0
     0.0
   195.7
   536.3
   513.2
   559.3
   183.0
   195.7
   202.9
   590.1
   551.3
   603.0
   607.2
   291.9
   455.1
   390.9
   654.5
   694.6
   606.4
   678.9
    50.3
   315.0
   100.6
   459.7
   459.7
   362.7
   183.0
   202.9
   623.9
   607.2
   640.5
   183.0
     0.0
     0.0
   469.7
   507.0
   432.3
   249.9
    44.5
   136.9
   435.5
   434.5
   436.6
    89.9
   146.9
    62.7
   508.7
   497.7
   519.7
    89.9
    62.7
   426.2
   530.6
   517.9
   543.3
   154.7
   123.9
   338.2
   381.4
   462.5
   300.3
    50.3
   269.5
     0.0
   395.9
   366.3
   383.0
   443.2
   257.1
   449.7
   156.1
   514.9
   431.9
   597.9
    28.8
   204.2
   426.2
   481.1
   437.0
   561.7
   432.2
   114.0
   204.2
    58.4
   438.9
   438.9
   263.9
   233.0
   288.9
   606.2
   627.7
   612.6
   538.7
   136.2
   288.9
   297.5
   490.4
   460.8
   550.5
   450.0
   214.5
   156.3
   162.0
   521.3
   516.0
   526.6
   263.9
   315.0
   233.0
   628.6
   550.3
   627.7
   666.6
   136.2
   297.5
    12.5
   421.8
   393.5
   450.0
   136.2
    61.0
   263.9
   474.4
   484.1
   464.7
    73.9
    45.9
     0.0
   402.9
   402.9
    99.1
    45.9
    71.4
   418.6
   418.6
   156.3
    37.4
    27.3
   347.3
   347.3
   163.6
   266.8
   296.3
   595.8
   552.8
   638.9
   100.2
   114.0
    58.4
   466.4
   466.4
   515.4
    91.5
    66.6
   504.0
   576.9
   447.6
   534.3
   606.4
   315.0
   263.9
   681.4
   705.7
   666.6
   680.3
   415.1
   385.1
   340.6
   732.5
   768.8
   691.1
   719.2
    21.3
    44.5
   209.8
   398.2
   398.2
    35.7
    92.0
   228.5
   402.4
   402.4
   183.0
   180.0
    30.6
   514.2
   568.4
   489.1
   465.7
    53.6
    30.6
   331.6
   435.7
   403.6
   467.8
   526.9
    71.4
   149.9
   537.0
   476.3
   597.7
    97.5
   155.4
    42.8
   452.5
   455.4
   449.5
    92.0
   396.2
   228.5
   507.6
   624.5
   402.4
   505.8
   327.3
   409.3
   318.5
   672.2
   661.9
   688.3
   665.6
    79.9
    44.5
   249.9
   480.4
   436.6
   524.3
    93.2
   125.4
   515.4
   548.4
   565.7
   531.1
   478.4
   249.9
   180.0
   640.9
   594.0
   687.8
   183.0
    30.6
    53.6
   465.7
   465.7
   396.2
    53.6
   331.6
   570.8
   701.4
   467.8
   522.1
   528.0
    79.9
   249.9
   545.4
   524.3
   566.6
   144.2
   337.1
    87.1
   511.2
   483.2
   539.1
   277.7
   398.3
    92.0
   518.6
   524.5
   512.8
   277.7
    92.0
    35.7
   508.3
   512.8
   503.8
    81.7
    53.6
   396.2
   549.4
   522.1
   576.6
   291.9
   281.0
   455.1
   655.4
   640.0
   651.2
   678.9
   323.0
   158.8
   344.1
   648.8
   615.3
   682.4
    97.5
   537.6
   155.4
   502.8
   556.9
   455.4
   547.7
   156.1
   385.1
    89.9
   578.4
   571.5
   585.4
   358.6
   344.1
   158.8
   649.2
   649.2
     0.0
   253.4
     0.0
   461.5
   461.5
   323.0
   612.3
   670.7
   797.3
   725.1
   869.6
   334.4
   175.5
   188.9
   509.0
   581.4
   436.6
   275.4
   191.4
   304.5
   549.2
   614.3
   484.2
   237.8
   183.0
   362.7
   618.2
   574.5
   640.5
   655.4
   358.6
   175.5
   344.1
   635.6
   630.7
   649.2
   630.9
     0.0
   175.5
   253.4
   474.1
   525.0
   423.2
   385.1
   326.1
   216.1
   618.0
   679.8
   556.2
   183.0
     0.0
   195.7
   541.7
   551.3
   559.3
   507.0
   275.4
   202.9
   121.4
   444.2
   546.1
   342.2
   275.4
   304.5
   475.6
   627.7
   641.1
   614.3
   156.3
   454.9
    37.4
   454.9
   469.5
   347.3
   592.3
   454.9
    61.0
    37.4
   469.5
   469.5
   100.2
    58.4
   338.2
   529.1
   555.0
   503.2
   224.8
    79.1
   230.8
   517.7
   517.7
   275.4
   121.4
   191.4
   484.2
   484.2
   409.1
   362.7
   475.6
   742.2
   749.7
   738.0
   735.3
   257.1
   114.0
   449.7
   569.8
   554.6
   564.5
   597.9
   606.4
   266.8
   315.0
   617.9
   705.7
   551.4
   632.3
   224.8
    61.0
    79.1
   468.2
   468.2
   129.5
   337.5
   159.0
   560.6
   560.6
   156.3
   548.2
   454.9
   634.5
   715.9
   592.3
   601.7
   515.4
   162.0
    91.5
   576.9
   576.9
    30.3
    99.1
    66.6
   447.3
   431.2
   463.4
   508.3
   266.8
   606.4
   753.8
   632.3
   875.3
   126.0
   526.9
   152.6
   560.9
   551.6
   570.2
   348.8
   398.3
   588.1
   702.6
   664.3
   759.8
   679.4
   129.5
   291.9
   337.5
   590.3
   660.6
   560.6
   536.8
   322.7
    79.1
   234.8
   566.7
   509.1
   624.4
   352.0
   528.0
   478.4
   750.0
   828.8
   669.4
   732.4
   214.5
   515.4
   322.8
   687.6
   630.1
   745.0
   214.5
   322.8
   548.2
   671.2
   671.2
   409.1
   261.2
   237.8
   591.5
   545.6
   637.4
   409.3
   448.5
    44.5
   579.5
   528.7
   678.3
   537.8
    79.9
   409.3
    44.5
   545.7
   537.8
   553.7
   126.0
    99.1
    71.4
   438.8
   438.8
   528.0
   249.9
   478.4
   758.3
   687.8
   828.8
   183.0
   352.0
   478.4
   620.6
   571.8
   669.4
   189.8
   318.5
   409.3
   633.9
   579.5
   688.3
   322.8
   234.8
   548.2
   604.3
   613.6
   671.2
   552.0
   398.5
   163.6
   114.0
   548.6
   529.8
   567.3
   158.3
   396.2
    92.0
   506.5
   507.1
   505.8
   158.3
    81.7
   396.2
   533.4
   507.1
   576.6
   522.2
   615.3
   528.0
   352.0
   784.9
   864.9
   732.4
   774.4
   189.8
    98.2
   478.6
   483.9
   438.1
   529.7
   183.0
    81.7
   178.8
   481.0
   438.9
   523.1
   220.4
   537.6
   155.2
   614.2
   614.2
   242.1
   155.2
   144.2
   568.3
   587.1
   549.5
   320.6
   537.6
   220.4
   673.9
   733.6
   614.2
   588.1
   398.3
   658.4
   827.0
   759.8
   894.2
   320.6
   398.3
   537.6
   724.2
   753.4
   733.6
   697.2
   242.1
   220.4
   155.2
   605.0
   587.1
   622.9
   323.0
   242.1
   144.2
   560.6
   560.6
   454.5
   275.2
   434.4
   729.5
   729.5
   323.0
   670.7
   445.6
   774.9
   836.0
   713.8
     0.0
   175.5
     0.0
   423.2
   423.2
   334.4
   344.1
   175.5
   625.6
   672.8
   630.7
   581.4
     0.0
   188.9
   175.5
   436.6
   436.6
   246.9
   188.9
     0.0
   493.3
   493.3
   522.6
   322.8
   515.4
   742.0
   750.1
   745.0
   734.8
   422.3
   234.8
   322.8
   600.5
   649.1
   552.0
   449.7
   163.6
   382.9
   661.3
   576.1
   746.5
    86.1
     0.0
     0.0
   220.2
   220.2
    95.7
    86.1
   183.0
   413.0
   470.0
   356.0
   415.1
   326.1
   385.1
   728.7
   719.4
   679.8
   768.8
   398.5
   114.0
   100.2
   498.1
   466.4
   529.8
   213.0
   385.1
   156.1
   586.9
   588.5
   585.4
   449.7
   114.0
   163.6
   570.3
   564.5
   576.1
   479.4
   475.6
   304.5
   726.8
   812.4
   641.1
   288.0
   213.0
   315.7
   567.9
   548.0
   587.8
   288.0
   340.6
   213.0
   629.8
   629.8
   651.9
   266.8
   508.3
   729.9
   674.3
   785.4
   651.9
   508.3
   450.8
   810.0
   815.4
   785.4
   816.7
   209.9
   398.5
   541.6
   629.5
   555.2
   723.7
   556.7
   234.8
    61.0
   454.9
   562.4
   562.4
   234.8
   454.9
   548.2
   624.5
   715.9
   562.4
   613.6
   296.3
   651.9
   450.8
   816.7
   816.7
   326.7
   508.3
   230.8
   648.0
   700.5
   666.7
   603.4
   545.3
   227.4
   176.7
   614.1
   614.1
   224.8
   508.3
   606.4
   768.6
   875.3
   662.0
    93.2
   515.4
    66.6
   532.7
   534.3
   531.1
   327.3
   219.7
   409.3
   661.9
   661.9
   269.5
    79.9
   528.0
   541.6
   464.7
   566.6
   666.5
   269.5
   615.3
   332.9
   644.3
   708.5
   580.1
   125.4
   522.6
   515.4
   657.9
   565.7
   750.1
   276.9
   464.1
   583.3
   694.1
   603.6
   809.3
   678.0
   104.6
   326.7
   230.8
   500.4
   397.4
   603.4
   266.8
   380.3
   632.0
   701.5
   701.5
   276.9
   298.9
   126.0
   576.8
   652.0
   447.5
   552.9
   443.0
   152.6
   526.9
   659.0
   774.7
   570.2
   602.1
   327.3
   318.5
   443.0
   680.1
   694.6
   665.6
   545.6
   443.0
   318.5
   766.2
   837.9
   694.6
   325.1
   152.6
   443.0
   655.4
   602.1
   708.8
   415.1
   492.8
   479.4
   805.3
   845.1
   748.4
   801.6
   288.0
   533.8
   367.7
   678.7
   646.8
   710.6
   183.0
   178.8
   352.0
   546.0
   568.9
   523.1
    97.0
    81.7
   158.3
   524.6
   522.2
   526.9
   269.5
   332.9
    98.2
   580.1
   580.1
   494.9
   334.4
   246.9
   624.1
   597.5
   650.6
    97.0
   178.8
    81.7
   430.3
   430.3
   448.3
    97.0
   208.8
   586.7
   523.8
   649.7
   352.4
   220.4
   242.1
   639.5
   656.2
   622.9
   208.8
    97.0
   158.3
   525.3
   526.9
   523.8
   146.5
   275.2
   126.5
   522.3
   508.3
   536.4
   588.1
   658.4
   253.2
   750.9
   704.0
   894.2
   663.0
   454.5
   537.7
   615.3
   843.9
   894.4
   776.5
   833.3
   448.3
   126.5
    97.0
   519.1
   519.1
   673.0
   337.5
   450.8
   774.0
   745.6
   749.8
   824.5
   449.7
   382.9
   315.7
   694.6
   668.8
   634.3
   746.5
   320.6
   516.0
   670.1
   748.6
   659.6
   837.7
   352.4
   490.1
   516.0
   791.2
   826.8
   755.5
   670.7
   514.7
   434.8
   810.8
   813.5
   796.3
   832.8
   670.7
   434.8
   445.6
   800.7
   755.8
   836.0
   832.8
   494.9
   612.3
   334.4
   741.4
   832.2
   650.6
     0.0
   246.9
     0.0
   574.8
   574.8
   434.8
   745.2
   445.6
   791.5
   827.3
   755.8
   300.8
   494.9
   158.6
   597.4
   572.8
   622.0
   409.1
   237.8
   362.7
   691.6
   749.7
   655.4
   637.4
    95.7
     0.0
     0.0
   437.8
   437.8
   123.9
    95.7
   237.8
   434.6
   460.7
   408.5
   415.1
   479.4
   304.5
   748.4
   748.4
   545.3
   475.6
   479.4
   814.3
   812.7
   812.4
   818.1
   382.9
   533.8
   315.7
   692.5
   668.8
   716.1
    91.8
   104.6
   230.8
   346.6
   295.9
   397.4
   450.8
   337.5
   482.3
   768.3
   712.0
   819.1
   749.8
   288.0
   492.8
   340.6
   645.0
   629.8
   660.2
   431.1
   479.4
   492.8
   818.1
   802.0
   845.1
   797.6
   126.2
   104.6
   321.1
   485.1
   485.1
   129.5
   183.2
   291.9
   500.5
   464.3
   536.8
   266.8
   541.6
   355.8
   672.1
   632.1
   721.5
   652.4
    91.8
   322.7
   104.6
   376.7
   419.0
   334.5
   159.0
   210.8
   541.6
   603.1
   603.1
   166.9
   422.3
   522.6
   716.2
   828.7
   557.7
   626.0
   326.7
   450.8
   508.3
   759.6
   700.5
   815.4
   744.9
   367.7
   431.1
   492.8
   775.9
   756.0
   797.6
   774.0
   276.9
   583.3
   166.9
   616.5
   555.1
   678.0
   561.6
   823.6
   741.2
   987.9
   929.3
  1046.5
   422.3
   322.8
   522.6
   781.8
   734.8
   828.7
   166.9
   522.6
   125.4
   557.7
   557.7
   126.2
   326.7
   104.6
   520.9
   520.9
   483.5
   736.0
   367.7
   829.5
   829.5
   609.8
   409.6
   234.8
   716.1
   680.9
   689.8
   781.1
   132.3
    98.2
   334.0
   507.2
   507.2
   184.1
   325.1
   218.3
   538.7
   516.4
   561.1
   276.9
   166.9
   125.4
   555.1
   555.1
   499.8
   673.0
   717.0
   886.8
   834.7
   965.4
   878.0
   347.3
   450.8
   326.7
   703.2
   758.7
   744.9
   620.1
   332.9
   334.0
    98.2
   564.1
   507.2
   620.9
   672.8
   443.0
   545.6
   866.2
   877.5
   837.9
   902.1
   672.8
   325.1
   443.0
   793.1
   877.5
   708.8
   132.3
   334.0
   172.7
   515.3
   515.3
   331.5
   409.6
   743.4
   728.2
   762.1
   694.3
   454.5
   352.0
   275.2
   690.2
   724.1
   656.2
   126.5
   178.8
    97.0
   444.1
   457.8
   430.3
   537.7
   803.8
   421.9
   773.6
   669.4
   877.8
   387.0
   355.8
   586.0
   697.3
   674.8
   709.7
   718.2
   409.6
   148.3
   126.2
   580.3
   580.3
   253.2
   658.4
   293.8
   718.0
   732.0
   704.0
   320.6
   687.6
   716.1
   940.7
   940.7
   146.5
   280.1
   434.4
   633.0
   680.8
   585.1
   408.2
   293.8
   573.1
   715.9
   635.3
   796.5
   885.1
   687.6
   670.1
   986.1
  1043.3
   929.9
  1005.7
   537.7
   421.9
   332.9
   664.0
   658.7
   669.4
   372.0
   687.6
   593.4
   838.7
   766.9
   910.4
   320.6
   670.1
   687.6
   929.9
   929.9
   490.1
   670.1
   516.0
   844.7
   826.8
   837.7
   873.9
   561.6
   741.2
   670.1
   970.2
  1018.4
   922.0
   372.0
   716.1
   687.6
   831.4
   766.9
   940.7
   768.3
    87.1
   246.9
     0.0
   503.7
   432.5
   574.8
   239.0
   417.6
   434.8
   750.1
   750.1
   300.8
   434.8
   514.7
   747.7
   796.3
   699.1
   494.9
    87.1
   158.6
   553.7
   572.8
   534.6
     0.0
    87.1
     0.0
   392.3
   392.3
   263.1
    87.1
     0.0
   415.5
   438.8
   392.3
   532.6
   583.3
   464.1
   810.2
   777.2
   809.3
   846.2
   632.0
   533.8
   382.9
   781.6
   867.6
   716.1
   744.5
   139.5
   261.2
   409.1
   520.8
   487.3
   554.3
    49.6
   123.9
   101.0
   439.6
   438.7
   440.5
   123.9
     0.0
     0.0
   507.9
   507.9
   176.7
   139.5
   409.1
   567.0
   579.6
   554.3
   139.5
   425.0
   101.0
   512.8
   496.0
   529.7
   494.5
   479.4
   431.1
   789.1
   810.4
   802.0
   748.2
   210.8
   355.8
   541.6
   662.3
   603.1
   721.5
   483.5
   533.8
   632.0
   849.8
   839.1
   867.6
   846.2
   673.0
   281.9
   337.5
   689.8
   634.0
   745.6
   262.6
   586.0
   355.8
   645.6
   581.6
   709.7
   380.3
   581.1
   632.0
   791.0
   880.6
   701.5
   210.8
   262.6
   355.8
   581.6
   581.6
   736.0
   431.1
   367.7
   820.4
   866.8
   774.0
   210.8
   281.9
   262.6
   569.6
   556.3
   582.9
   609.8
   234.8
   422.3
   669.4
   649.1
   689.8
   717.0
   673.0
   450.8
   895.0
   824.5
   965.4
   126.2
   347.3
   326.7
   570.5
   520.9
   620.1
   347.3
   717.0
   450.8
   771.9
   758.7
   785.0
   672.8
   545.6
   696.3
   918.2
   875.6
   902.1
   973.3
   208.8
   511.0
   166.9
   595.2
   595.2
   511.0
   422.3
   166.9
   676.2
   779.9
   626.0
   595.2
   609.8
   680.0
   743.4
   970.7
  1019.3
   911.5
   951.8
   371.7
   499.8
   488.4
   778.3
   731.0
   825.7
   483.5
   581.1
   799.4
   905.4
   844.7
   966.1
   380.3
   434.8
   417.6
   752.1
   775.5
   750.1
   723.8
   218.3
   532.6
   464.1
   670.7
   564.3
   777.2
   258.9
   522.1
   660.8
   718.1
   624.4
   811.8
   583.3
   208.8
   166.9
   622.5
   622.5
   680.0
   715.3
   743.4
  1006.2
  1015.4
  1019.3
   985.6
   421.9
   172.7
   334.0
   598.7
   682.0
   515.3
   411.1
   583.3
   532.6
   802.3
   774.1
   846.2
   788.7
   343.6
   511.0
   208.8
   666.6
   666.6
   306.3
   132.3
   172.7
   500.1
   500.1
   421.9
   334.0
   332.9
   653.7
   620.9
   682.0
   658.7
   672.8
   574.2
   660.8
   889.0
   914.5
   868.4
   881.1
   331.5
   743.4
   715.3
  1015.4
  1015.4
   541.0
   431.1
   736.0
   853.0
   822.2
   866.8
   897.2
   306.3
   172.7
   210.4
   516.3
   500.1
   532.6
   146.5
   434.4
   275.2
   560.8
   585.1
   536.4
   408.2
   253.2
   293.8
   635.3
   635.3
   844.0
   421.9
   803.8
  1098.9
  1098.9
   300.5
   172.7
   421.9
   700.3
   700.3
   263.1
   158.6
    87.1
   474.8
   510.8
   438.8
   680.6
   434.4