# vtk DataFile Version 3.0
Landscape
ASCII
DATASET UNSTRUCTURED_GRID
POINTS      25864 float
           0.000           0.000           0.000
        1600.000           0.000           0.000
           0.000        1600.000           0.000
         533.333         533.333           0.000
        1820.535        1836.129         179.478
        1600.000           0.000           0.000
        3200.000           0.000           0.000
        2206.845         612.043         367.884
        1765.043        1374.119         367.884
        4436.497        1560.645         233.071
        3200.000           0.000           0.000
        4800.000           0.000           0.000
        4145.499         520.215         358.221
        4504.568        1268.392         358.221
        6234.052        1737.813          61.037
        4800.000           0.000           0.000
        6400.000           0.000           0.000
        5811.350         579.271         368.069
        5687.091        1074.996         368.069
        8231.839        1585.959         203.720
        6400.000           0.000           0.000
        8000.000           0.000           0.000
        8009.482        1238.225         382.149
        7839.083        1245.921         412.922
        8179.881        1230.529         351.377
        8231.839        1585.959         203.720
        8000.000           0.000           0.000
        9600.000           0.000           0.000
        8610.613         528.653         351.377
        8179.881        1230.529         351.377
       10114.256        2299.635         180.579
       10506.534         877.165          59.239
       11192.297        1979.624         141.122
       10604.362        1718.808         386.591
       10603.935        2154.276         386.591
       11192.297        1979.624         141.122
       11200.000           0.000           0.000
       12800.000           0.000           0.000
       11406.139        1433.146         389.760
       11194.511        1410.567         369.448
       11617.767        1455.726         410.073
       14535.388        1860.001          63.705
       12800.000           0.000           0.000
       14400.001           0.000           0.000
       14182.357        1160.269         363.940
       13880.066        1157.622         385.838
       14484.648        1162.915         342.042
       14535.388        1860.001          63.705
       14400.001           0.000           0.000
       16000.000           0.000           0.000
       14978.463         620.000         342.042
       14484.648        1162.915         342.042
       17224.315        1919.917         382.078
       16000.000           0.000           0.000
       17600.000           0.000           0.000
       16941.438         639.972         411.869
       17235.280        1863.882         411.869
       18961.790        1751.968          33.277
       17600.000           0.000           0.000
       19200.000           0.000           0.000
       18587.263         583.989         354.452
       18380.481        1004.104         354.452
        4436.497        1560.645         233.071
        1820.535        1836.129         179.478
        3200.000           0.000           0.000
        3152.344        1132.258         560.538
        3387.195        1671.146         560.538
       23731.335        1792.943         213.726
       22400.000           0.000           0.000
       24000.001           0.000           0.000
       23377.112         597.648         371.280
       23788.513        1411.364         371.280
       25712.931        1511.197          50.395
       24000.001           0.000           0.000
       25599.999           0.000           0.000
       25104.310         503.732         365.720
       25029.198         907.988         365.720
       25712.931        1511.197          50.395
       27200.000           0.000           0.000
       27507.238        1603.221         220.706
       26806.723        1038.139         376.755
       26307.524         906.957         355.645
       27444.412        1275.385         358.559
       27024.066        1578.441         416.149
       27507.238        1603.221         220.706
       27200.000           0.000           0.000
       28800.001           0.000           0.000
       27835.746         534.407         358.559
       27444.412        1275.385         358.559
       30065.602        1613.570         347.861
       28800.001           0.000           0.000
       30400.000           0.000           0.000
       29755.201         537.857         414.064
       29977.192        1500.851         414.064
       31040.554         771.051         238.480
       30065.602        1613.570         347.861
       30400.000           0.000           0.000
       30683.501         989.393         417.561
       30953.306         666.027         299.493
       30413.697        1312.759         535.628
       31415.600        1997.898         134.614
       33371.579        1994.991          40.300
       33224.678        2857.386          56.053
       32084.487        2154.176         411.834
       32093.377        1996.891         404.783
       32075.597        2311.461         418.884
       34548.701        1811.800         236.996
       34459.486        2336.808         176.474
       33371.579        1994.991          40.300
       34126.589        2047.867         320.037
       34517.476        1995.552         320.037
        6234.052        1737.813          61.037
        6043.012        3262.445         123.871
        5160.666        3300.186         246.189
        5812.577        2766.815         365.125
        5441.323        3288.181         365.125
       37099.539        1414.823         326.514
       35200.000           0.000           0.000
       36800.001           0.000           0.000
       36366.513         471.608         431.462
       36905.179        1270.059         431.462
       37099.539        1414.823         326.514
       36800.001           0.000           0.000
       38399.999           0.000           0.000
       37433.180         471.608         403.657
       37214.391        1289.872         403.657
       39191.316         917.871          38.643
       38399.999           0.000           0.000
       40000.000           0.000           0.000
       39197.105         305.957         256.922
       38836.989         506.877         256.922
       40125.312        1643.514          41.567
       41599.998           0.000           0.000
       41840.942        1855.796         362.057
       41188.751        1166.437         392.310
       40738.535         960.086         359.103
       41828.596        1760.709         406.191
       41672.617        1834.969         434.525
       41840.942        1855.796         362.057
       41599.998           0.000           0.000
       43200.002           0.000           0.000
       42213.647         618.599         406.191
       41828.596        1760.709         406.191
       43418.644        1867.336          55.013
       43200.002           0.000           0.000
       44800.000           0.000           0.000
       43806.215         622.445         341.366
       43332.862        1134.704         341.366
       34548.701        1811.800         236.996
       37099.539        1414.823         326.514
       36841.038        3085.085         145.982
       36163.093        2103.903         569.557
       36255.520        1546.175         628.854
       37034.672        1833.951         501.243
       35306.007        2232.448         543.541
       48116.282        1628.322         148.478
       49600.000           0.000           0.000
       49975.028        1831.460         266.565
       49230.437        1153.260         433.794
       48526.223        1178.428         391.998
       49916.606        1546.152         390.484
       49386.293        1767.118         506.051
       10114.256        2299.635         180.579
        8231.839        1585.959         203.720
       10506.534         877.165          59.239
        8969.043        1651.969         488.477
        9088.104        1910.593         514.917
        8849.982        1393.346         462.037
       52954.322        1538.422         130.863
       52800.002           0.000           0.000
       54400.001           0.000           0.000
       53384.775         512.807         330.238
       52905.047        1047.196         330.238
       55816.240        1531.934         172.791
       54400.001           0.000           0.000
       55999.999           0.000           0.000
       55658.902        1130.188         364.765
       55452.393        1138.363         388.356
       55865.411        1122.013         341.175
       55816.240        1531.934         172.791
       55999.999           0.000           0.000
       57600.002           0.000           0.000
       56472.081         510.645         341.175
       55865.411        1122.013         341.175
       38196.713        1837.356          81.960
       37099.539        1414.823         326.514
       38399.999           0.000           0.000
       37898.751        1084.060         376.910
       38269.579        1178.777         346.272
       37214.391        1289.872         403.657
       37269.908        1480.434         408.592
       59004.449        1641.677          40.343
       57600.002           0.000           0.000
       59200.001           0.000           0.000
       58601.484         547.226         317.034
       59086.529         952.602         317.034
       25712.931        1511.197          50.395
       25600.029        2863.835         101.019
       23731.335        1792.943         213.726
       24288.917        1920.897         455.231
       24310.800        2125.017         479.577
       24267.033        1716.777         430.885
[...]
POINT_DATA      25864
SCALARS height float 1
LOOKUP_TABLE default
     0.0
     0.0
     0.0
     0.0
   179.5
     0.0
     0.0
   367.9
   367.9
   233.1
     0.0
     0.0
   358.2
   358.2
    61.0
     0.0
     0.0
   368.1
   368.1
   203.7
     0.0
     0.0
   382.1
   412.9
   351.4
   203.7
     0.0
     0.0
   351.4
   351.4
   180.6
    59.2
   141.1
   386.6
   386.6
   141.1
     0.0
     0.0
   389.8
   369.4
   410.1
    63.7
     0.0
     0.0
   363.9
   385.8
   342.0
    63.7
     0.0
     0.0
   342.0
   342.0
   382.1
     0.0
     0.0
   411.9
   411.9
    33.3
     0.0
     0.0
   354.5
   354.5
   233.1
   179.5
     0.0
   560.5
   560.5
   213.7
     0.0
     0.0
   371.3
   371.3
    50.4
     0.0
     0.0
   365.7
   365.7
    50.4
     0.0
   220.7
   376.8
   355.6
   358.6
   416.1
   220.7
     0.0
     0.0
   358.6
   358.6
   347.9
     0.0
     0.0
   414.1
   414.1
   238.5
   347.9
     0.0
   417.6
   299.5
   535.6
   134.6
    40.3
    56.1
   411.8
   404.8
   418.9
   237.0
   176.5
    40.3
   320.0
   320.0
    61.0
   123.9
   246.2
   365.1
   365.1
   326.5
     0.0
     0.0
   431.5
   431.5
   326.5
     0.0
     0.0
   403.7
   403.7
    38.6
     0.0
     0.0
   256.9
   256.9
    41.6
     0.0
   362.1
   392.3
   359.1
   406.2
   434.5
   362.1
     0.0
     0.0
   406.2
   406.2
    55.0
     0.0
     0.0
   341.4
   341.4
   237.0
   326.5
   146.0
   569.6
   628.9
   501.2
   543.5
   148.5
     0.0
   266.6
   433.8
   392.0
   390.5
   506.1
   180.6
   203.7
    59.2
   488.5
   514.9
   462.0
   130.9
     0.0
     0.0
   330.2
   330.2
   172.8
     0.0
     0.0
   364.8
   388.4
   341.2
   172.8
     0.0
     0.0
   341.2
   341.2
    82.0
   326.5
     0.0
   376.9
   346.3
   403.7
   408.6
    40.3
     0.0
     0.0
   317.0
   317.0
    50.4
   101.0
   213.7
   455.2
   479.6
   430.9
   262.3
     0.0
     0.0
   396.0
   414.6
   377.3
    35.1
     0.0
     0.0
   238.6
   238.6
   235.9
    68.7
   134.2
   479.1
   479.1
    63.7
   141.1
     0.0
   437.7
   385.8
   410.1
   493.3
    88.6
     0.0
     0.0
   338.6
   310.5
   366.8
   160.8
     0.0
     0.0
   373.7
   398.5
   348.8
    78.4
   360.5
   160.8
   385.6
   385.6
   312.6
    40.3
     0.0
   361.3
   317.0
   405.6
   153.5
   335.8
   312.6
   590.0
   660.0
   520.0
    33.3
   301.2
    68.3
   466.4
   430.0
   502.8
   122.0
   272.5
   301.2
   512.5
   574.6
   450.5
   382.1
    63.7
     0.0
   510.0
   510.0
    59.2
   203.7
     0.0
   462.0
   462.0
   179.5
     0.0
     0.0
   432.7
   367.9
   497.6
   301.2
     0.0
     0.0
   409.7
   431.2
   388.1
   141.5
     0.0
   122.0
   292.7
   292.7
    29.9
     0.0
     0.0
   347.5
   347.5
    29.9
     0.0
   130.9
   359.3
   356.0
   330.2
   387.0
    61.0
   233.1
     0.0
   385.8
   368.1
   358.2
   427.7
    29.9
   130.9
    63.4
   414.3
   441.6
   387.0
    88.6
     0.0
     0.0
   310.5
   310.5
    91.4
   206.2
   141.1
   526.5
   514.5
   538.5
   172.8
   130.9
     0.0
   456.3
   388.4
   524.3
   347.9
   220.7
     0.0
   516.0
   414.1
   618.0
   369.5
   206.2
    91.4
   552.5
   538.5
   566.5
   312.6
     0.0
     0.0
   376.2
   376.2
   153.5
     0.0
     0.0
   399.7
   399.7
   168.4
   482.2
   101.0
   502.4
   501.9
   502.9
   124.9
   301.2
   272.5
   553.0
   564.8
   574.6
   532.5
   235.3
    91.4
   382.1
   542.6
   535.0
   573.0
   527.0
    33.3
    68.3
   235.3
   439.8
   439.8
   134.6
    18.0
    40.3
   404.8
   404.8
    72.1
   146.2
    86.3
   463.1
   480.9
   445.3
   148.5
   384.2
   146.2
   509.8
   532.0
   487.5
   146.0
   326.5
    82.0
   454.9
   408.6
   501.2
    41.6
    38.6
     0.0
   277.2
   277.2
    41.6
    82.0
    38.6
   331.1
   385.1
   277.2
   250.2
   339.5
   220.7
   618.0
   545.3
   608.9
   659.7
    55.0
   362.1
     0.0
   387.4
   341.4
   433.4
   148.5
    72.1
     0.0
   401.5
   326.2
   403.1
   466.3
   266.8
   101.0
   339.5
   511.3
   463.5
   559.1
   134.2
     0.0
     0.0
   379.8
   356.5
   403.1
    98.5
    43.0
   320.0
   415.0
   415.0
   238.3
   130.9
   172.8
   552.2
   524.3
   580.1
    72.1
    86.3
    55.0
   425.5
   405.7
   445.3
    40.3
   172.8
     0.0
   491.1
   491.1
    88.6
   320.0
     0.0
   444.2
   409.4
   479.1
   160.8
    88.6
     0.0
   434.4
   398.5
   366.8
   501.7
   153.5
   312.6
     0.0
   442.1
   399.7
   376.2
   520.0
   148.5
   146.2
    72.1
   476.9
   487.5
   466.3
   214.6
   384.2
   411.2
   577.2
   507.0
   647.3
    63.4
   384.2
   266.6
   518.8
   645.6
   424.8
   532.1
   235.9
    35.1
    68.7
   441.5
   496.3
   373.3
   479.1
    43.0
   134.2
     0.0
   422.1
   403.1
   441.1
   194.6
   203.7
   321.5
   578.8
   564.0
   588.3
   588.9
   248.7
     0.0
     0.0
   411.6
   441.4
   381.9
   248.7
     0.0
     0.0
   493.8
   381.9
   605.7
   147.1
    88.6
   160.8
   522.3
   501.7
   542.8
   360.5
   248.7
   174.3
   588.6
   644.8
   520.7
   623.8
   147.1
   158.6
   320.0
   542.8
   543.0
   534.6
   548.0
     0.0
   248.7
     0.0
   531.6
   605.7
   457.4
    61.0
   246.2
   233.1
   490.8
   553.9
   427.7
   180.6
   206.2
   321.5
   478.4
   545.1
   411.7
   472.8
   179.5
   233.1
   588.0
   560.5
   615.5
     0.0
     0.0
   179.5
   519.6
   497.6
   541.7
   183.3
   179.5
   472.8
   565.7
   540.0
   591.4
   246.2
   472.8
   233.1
   589.9
   553.9
   615.5
   618.0
   480.9
   472.8
   246.2
   705.5
   792.9
   618.0
   331.1
   482.2
   440.3
   691.1
   736.5
   645.6
   705.4
    50.4
   339.5
   101.0
   463.5
   463.5
   480.9
   183.3
   472.8
   672.3
   792.9
   591.4
   645.6
   183.3
     0.0
     0.0
   468.7
   505.1
   432.2
   238.3
    63.4
   130.9
   444.2
   441.6
   446.7
    91.4
   141.1
    63.7
   503.9
   493.3
   514.5
    91.4
    63.7
   382.1
   522.5
   510.0
   535.0
   141.5
   122.0
   301.2
   371.6
   450.5
   292.7
    50.4
   213.7
     0.0
   389.2
   365.7
   371.3
   430.9
   222.1
   466.3
   162.3
   464.2
   510.5
   418.0
    33.3
   235.3
   382.1
   488.4
   431.1
   573.0
   439.8
   129.1
   235.3
    68.3
   457.5
   457.5
   250.2
   220.7
   347.9
   601.0
   618.0
   608.9
   547.3
   134.6
   347.9
   238.5
   478.6
   472.8
   535.6
   431.2
   194.7
   176.5
   146.0
   520.2
   514.3
   526.1
    86.3
   362.1
    55.0
   464.8
   496.2
   433.4
   134.6
   238.5
    18.0
   407.5
   383.9
   431.2
   134.6
    95.7
   250.2
   493.5
   506.2
   480.8
    72.1
    55.0
     0.0
   405.7
   405.7
   122.4
   362.1
    86.3
   511.4
   526.5
   496.2
   176.5
    56.1
    40.3
   366.3
   366.3
   168.4
   266.8
   350.3
   604.0
   552.9
   655.1
   124.9
   129.1
    68.3
   483.4
   483.4
   448.9
    82.0
    91.8
   504.3
   558.2
   453.0
   541.4
   646.7
   339.5
   250.2
   680.8
   721.5
   659.7
   665.2
   460.5
   369.5
   385.8
   740.2
   767.1
   702.8
   756.3
    29.9
    63.4
   266.6
   424.8
   424.8
    35.1
    91.3
   262.3
   411.8
   411.8
   211.3
   172.8
    40.3
   519.9
   572.1
   491.1
   477.0
    71.9
    40.3
   312.6
   440.9
   405.6
   476.2
   502.0
    86.3
   146.2
   533.5
   480.9
   586.0
    98.5
   134.2
    43.0
   443.3
   445.5
   441.1
    91.3
   335.8
   262.3
   522.6
   629.8
   411.8
   492.1
   326.5
   411.2
   397.8
   696.8
   658.4
   729.6
   694.2
   118.3
    63.4
   238.3
   494.6
   446.7
   542.5
   130.1
   178.8
   448.9
   568.7
   592.1
   545.4
   456.9
   238.3
   172.8
   623.4
   580.1
   666.8
   211.3
    40.3
    71.9
   477.0
   477.0
   335.8
    71.9
   312.6
   561.2
   660.0
   476.2
   525.1
   510.8
   118.3
   238.3
   565.6
   542.5
   588.7
   147.1
   320.0
    88.6
   506.9
   479.1
   534.6
   235.9
   334.4
    91.3
   506.8
   510.9
   502.6
   235.9
    91.3
    35.1
   499.5
   502.6
   496.3
   112.9
    71.9
   335.8
   557.0
   525.1
   588.8
   331.1
   272.5
   482.2
   665.3
   646.0
   642.5
   705.4
   326.0
   160.8
   360.9
   648.6
   612.3
   685.0
    98.5
   525.7
   134.2
   494.4
   445.5
   543.3
   162.3
   369.5
    91.4
   574.6
   566.5
   582.6
   360.5
   360.9
   160.8
   657.1
   657.1
     0.0
   248.7
     0.0
   457.4
   457.4
   326.0
   612.5
   653.9
   789.8
   718.3
   861.3
   335.4
   174.3
   189.6
   506.3
   576.3
   436.3
   279.6
   194.6
   317.2
   553.1
   618.8
   487.3
   235.8
   183.3
   480.9
   616.0
   569.2
   645.6
   663.3
   360.5
   174.3
   360.9
   633.8
   626.8
   657.1
   623.8
     0.0
   174.3
   248.7
   471.4
   520.7
   422.0
   369.5
   321.5
   206.2
   605.8
   666.6
   545.1
   183.3
     0.0
   179.5
   531.0
   540.0
   541.7
   505.1
   279.6
   246.2
   123.9
   468.5
   571.9
   365.1
   279.6
   317.2
   498.3
   635.4
   652.1
   618.8
   176.5
   483.5
    56.1
   486.6
   366.3
   606.9
   483.5
    95.7
    56.1
   493.4
   493.4
   124.9
    68.3
   301.2
   533.8
   564.8
   502.8
   668.1
   563.8
   606.8
   902.6
   822.2
   911.2
   939.0
   279.6
   123.9
   194.6
   487.3
   487.3
   328.0
   480.9
   498.3
   744.3
   737.3
   812.9
   673.3
   222.1
   129.1
   466.3
   561.3
   549.5
   573.1
   646.7
   266.8
   339.5
   640.3
   721.5
   559.1
   326.5
    95.7
   128.7
   509.6
   509.6
   170.4
   611.6
   221.2
   634.1
   634.1
   176.5
   541.9
   483.5
   646.9
   727.2
   606.9
   611.6
   448.9
   146.0
    82.0
   558.2
   558.2
   122.4
    91.8
   362.1
   490.4
   510.6
   526.5
   452.9
   326.5
   128.7
   315.6
   611.8
   611.8
   159.8
   502.0
   200.0
   584.4
   570.1
   598.8
   332.9
   334.4
   585.0
   659.0
   627.3
   702.1
   662.1
   319.4
    95.7
   483.5
   562.2
   493.4
   631.0
   281.3
   128.7
   319.4
   600.6
   556.3
   645.0
   397.9
   510.8
   456.9
   753.2
   802.7
   696.5
   757.7
   194.7
   448.9
   307.6
   657.6
   599.6
   715.7
   194.7
   307.6
   541.9
   655.0
   655.0
   328.0
   215.4
   235.8
   568.1
   521.1
   615.0
   411.2
   384.2
    63.4
   570.9
   532.1
   647.3
   549.1
   118.3
   411.2
    63.4
   563.7
   549.1
   578.3
   159.8
   122.4
    86.3
   459.8
   459.8
   510.8
   238.3
   456.9
   734.7
   666.8
   802.7
   211.3
   397.9
   456.9
   640.8
   585.1
   696.5
   239.2
   397.8
   411.2
   671.5
   613.4
   729.6
   307.6
   319.4
   541.9
   638.7
   673.8
   655.0
   603.3
   321.6
   189.5
   129.1
   549.2
   526.3
   572.1
   161.7
   335.8
    91.3
   492.8
   493.4
   492.1
   161.7
   112.9
   335.8
   543.7
   493.4
   588.8
   536.6
   762.8
   510.8
   397.9
   799.2
   864.1
   757.7
   812.2
   475.0
   239.2
   118.3
   496.7
   496.7
   211.3
   112.9
   219.1
   510.3
   467.2
   553.4
   229.1
   525.7
   158.6
   578.8
   613.6
   544.0
   252.0
   158.6
   147.1
   567.7
   587.4
   548.0
   370.5
   525.7
   229.1
   688.2
   762.7
   613.6
   585.0
   334.4
   537.5
   768.4
   702.1
   834.7
   370.5
   334.4
   525.7
   716.4
   695.0
   762.7
   689.3
   252.0
   229.1
   158.6
   606.1
   587.4
   624.9
   326.0
   252.0
   147.1
   566.9
   566.9
   556.5
   336.2
   548.9
   841.7
   841.7
   326.0
   653.9
   479.5
   780.6
   848.1
   713.1
     0.0
   174.3
     0.0
   422.0
   422.0
   335.4
   360.9
   174.3
   622.8
   676.0
   626.8
   576.3
     0.0
   189.6
   174.3
   436.3
   436.3
   226.8
   189.6
     0.0
   486.8
   486.8
   350.3
   668.1
   606.8
   814.5
   939.0
   690.0
   426.6
   319.4
   307.6
   656.3
   709.3
   603.3
   466.3
   189.5
   479.7
   695.6
   594.0
   797.2
    86.5
     0.0
     0.0
   220.3
   220.3
    95.2
    86.5
   183.3
   412.0
   468.0
   355.9
   460.5
   321.5
   369.5
   716.9
   718.4
   666.6
   767.1
   321.6
   129.1
   124.9
   504.9
   483.4
   526.3
   226.7
   369.5
   162.3
   587.4
   592.1
   582.6
   466.3
   129.1
   189.5
   583.6
   573.1
   594.0
   526.5
   498.3
   317.2
   745.0
   837.9
   652.1
   327.3
   226.7
   330.4
   588.9
   559.7
   618.0
   327.3
   385.8
   226.7
   668.7
   668.7
   331.1
   611.6
   212.1
   642.1
   663.5
   620.7
   319.4
   483.5
   541.9
   671.9
   727.2
   631.0
   673.8
   256.5
   321.6
   532.1
   581.8
   573.7
   589.9
   170.4
   212.1
   611.6
   559.8
   620.7
   498.8
   479.7
   581.8
   330.4
   745.8
   693.6
   798.0
   668.1
   266.8
   563.8
   822.2
   822.2
   563.8
   266.8
   646.7
   914.1
   914.1
   587.3
   307.6
   448.9
   723.0
   737.7
   715.7
   720.5
   326.5
   563.8
   646.7
   813.1
   673.6
   914.1
   738.9
   493.2
   563.8
   315.6
   748.6
   835.4
   730.7
   692.1
   130.1
   448.9
    91.8
   543.4
   541.4
   545.4
   326.5
   214.6
   411.2
   658.4
   658.4
   397.2
   118.3
   510.8
   608.1
   515.6
   588.7
   757.1
   397.2
   762.8
   437.0
   754.9
   807.4
   702.4
   178.8
   587.3
   448.9
   664.9
   592.1
   737.7
   327.5
   628.8
   667.9
   799.3
   672.6
   948.4
   719.9
   180.3
   493.2
   315.6
   585.0
   477.9
   692.1
   368.0
   612.2
   810.0
   922.9
   922.9
   327.5
   352.6
   159.8
   617.1
   693.3
   485.9
   581.9
   462.2
   200.0
   502.0
   675.1
   780.8
   598.8
   635.3
   326.5
   397.8
   462.2
   722.7
   751.2
   694.2
   648.1
   462.2
   397.8
   802.4
   853.6
   751.2
   365.5
   200.0
   462.2
   686.9
   635.3
   738.5
   460.5
   585.3
   526.5
   844.6
   896.6
   788.9
   844.6
   480.2
   224.2
   171.9
   576.3
   596.3
   556.2
   327.3
   581.8
   462.5
   736.8
   682.0
   791.6
   211.3
   219.1
   397.9
   578.4
   603.5
   553.4
   136.9
   112.9
   161.7
   540.7
   536.6
   544.9
   397.2
   437.0
   150.1
   702.4
   702.4
   432.4
   335.4
   226.8
   606.0
   579.4
   632.7
   136.9
   219.1
   112.9
   469.2
   469.2
   530.8
   136.9
   219.0
   603.9
   547.5
   660.3
   386.7
   229.1
   252.0
   644.5
   664.1
   624.9
   219.0
   136.9
   161.7
   546.2
   544.9
   547.5
   227.0
   336.2
   188.6
   585.3
   564.8
   605.9
   585.0
   537.5
   273.5
   735.2
   696.9
   834.7
   671.6
   556.5
   749.7
   762.8
   974.3
  1064.8
   879.5
   930.1
   530.8
   188.6
   136.9
   578.1
   578.1
   873.9
   443.0
   606.8
   903.9
   842.6
   965.1
   466.3
   479.7
   330.4
   727.4
   646.6
   693.6
   797.2
   370.5
   523.7
   798.5
   779.1
   697.6
   860.7
   386.7
   589.9
   523.7
   820.4
   867.6
   773.2
   653.9
   565.6
   445.6
   822.2
   846.5
   805.3
   827.1
   653.9
   445.6
   479.5
   811.0
   773.1
   848.1
   827.1
   432.4
   612.5
   335.4
   704.6
   776.5
   632.7
     0.0
   226.8
     0.0
   553.8
   553.8
   445.6
   753.3
   479.5
   808.5
   844.0
   773.1
   313.0
   432.4
   154.8
   583.9
   555.0
   612.7
   328.0
   235.8
   480.9
   668.2
   737.3
   663.3
   615.0
    95.2
     0.0
     0.0
   436.0
   436.0
   105.7
    95.2
   235.8
   422.5
   445.8
   399.3
   460.5
   526.5
   317.2
   788.9
   788.9
   480.2
   498.3
   526.5
   815.0
   793.0
   837.9
   806.8
   443.0
   611.6
   507.1
   779.4
   748.5
   799.6
   792.0
   153.6
   180.3
   315.6
   424.9
   371.9
   477.9
   606.8
   443.0
   507.1
   835.1
   884.1
   792.0
   842.6
   327.3
   585.3
   385.8
   684.5
   668.7
   700.3
   633.2
   526.5
   585.3
   909.5
   898.8
   896.6
   934.1
   233.5
   180.3
   477.9
   555.2
   514.2
   596.2
   221.2
   443.0
   336.1
   645.5
   645.5
   368.0
   532.1
   723.1
   774.9
   710.7
   876.7
   779.4
   153.6
   281.3
   180.3
   403.5
   460.4
   346.7
   221.2
   427.7
   532.1
   679.8
   769.5
   590.2
   255.9
   426.6
   587.3
   737.5
   830.9
   632.5
   688.2
   493.2
   606.8
   563.8
   874.2
   835.4
   911.2
   884.4
   462.5
   633.2
   585.3
   876.4
   835.5
   934.1
   872.5
   327.5
   667.9
   255.9
   671.8
   623.7
   719.9
   709.4
   964.3
  1000.8
  1152.6
  1053.3
  1251.8
   426.6
   307.6
   587.3
   775.7
   720.5
   830.9
   255.9
   587.3
   178.8
   632.5
   632.5
   233.5
   493.2
   180.3
   628.4
   628.4
   775.2
   917.1
   462.5
  1091.2
  1091.2
   638.9
   639.0
   319.4
   825.8
   759.2
   749.0
   948.4
   242.7
   150.1
   555.6
   577.7
   577.7
   269.9
   365.5
   373.6
   635.2
   591.8
   678.6
   327.5
   255.9
   178.8
   623.7
   623.7
  1003.7
   873.9
   936.6
  1202.5
  1179.0
  1165.0
  1256.1
   642.8
   606.8
   493.2
   913.5
   967.7
   884.4
   814.8
   437.0
   555.6
   150.1
   668.3
   577.7
   758.8
   823.5
   462.2
   648.1
   901.9
   886.0
   853.6
   991.5
   823.5
   365.5
   462.2
   812.2
   886.0
   738.5
   242.7
   555.6
   430.8
   767.1
   767.1
   638.0
   639.0
   923.4
   967.7
   965.9
   989.5
   955.6
   556.5
   397.9
   336.2
   735.8
   767.8
   703.7
   188.6
   219.1
   136.9
   489.5
   509.7
   469.2
   749.7
   976.0
   794.1
  1041.5
  1115.0
   968.0
  1067.6
   678.9
   723.1
   992.9
  1030.9
  1003.4
  1058.5
   639.0
   311.2
   233.5
   732.7
   732.7
   273.5
   537.5
   330.2
   717.0
   737.1
   696.9
   370.5
   799.9
   747.0
  1013.2
  1013.2
   227.0
   400.6
   548.9
   720.8
   785.0
   656.6
   466.7
   330.2
   696.4
   761.4
   674.1
   848.8
  1099.1
   799.9
   798.5
  1093.5
  1138.5
  1053.1
  1124.6
   749.7
   794.1
   437.0
   968.0
   968.0
   469.1
   799.9
   856.9
   976.2
   851.0
  1101.3
   370.5
   798.5
   799.9
  1053.1
  1053.1
   589.9
   798.5
   523.7
   898.0
   867.6
   860.7
   955.6
   709.4
  1000.8
   798.5
  1091.5
  1135.4
  1047.5
   469.1
   747.0
   799.9
   906.3
   851.0
  1013.2
   842.3
    85.0
   226.8
     0.0
   489.3
   424.8
   553.8
   231.8
   420.2
   445.6
   752.1
   752.1
   313.0
   445.6
   565.6
   753.9
   805.3
   702.5
   432.4
    85.0
   154.8
   537.8
   555.0
   520.6
     0.0
    85.0
     0.0
   390.0
   390.0
   274.7
    85.0
     0.0
   414.5
   439.1
   390.0
   848.2
   667.9
   628.8
   965.2
   958.4
   948.4
   992.5
   810.0
   581.8
   479.7
   848.3
   924.7
   798.0
   839.1
   134.6
   215.4
   328.0
   503.3
   471.8
   534.9
    47.4
   105.7
    96.9
   428.9
   427.0
   430.8
   105.7
     0.0
     0.0
   489.3
   489.3
   171.9
   134.6
   328.0
   547.1
   559.3
   534.9
   134.6
   396.3
    96.9
   501.8
   485.3
   518.3
   480.0
   526.5
   633.2
   846.9
   819.0
   898.8
   809.7
   427.7
   723.1
   532.1
   823.1
   769.5
   876.7
   775.2
   581.8
   810.0
  1007.1
   944.5
   924.7
  1099.1
   873.9
   567.7
   443.0
   870.4
   801.3
   939.5
   757.1
   992.9
   723.1
  1053.4
  1026.6
  1058.5
  1091.4
   612.2
   951.5
   810.0
  1019.4
  1115.9
   922.9
   427.7
   757.1
   723.1
  1026.6
  1026.6
   917.1
   633.2
   462.5
   949.4
  1026.4
   872.5
   427.7
   567.7
   757.1
   850.9
   779.2
   922.5
   638.9
   319.4
   426.6
   729.2
   709.3
   749.0
   936.6
   873.9
   606.8
  1065.0
   965.1
  1165.0
   233.5
   642.8
   493.2
   721.6
   628.4
   814.8
   642.8
   936.6
   606.8
   996.6
   967.7
  1025.5
   823.5
   648.1
   969.9
  1047.2
   987.4
   991.5
  1132.1
   371.9
   677.0
   255.9
   705.5
   705.5
   677.0
   426.6
   255.9
   743.6
   799.0
   688.2
   638.9
   799.0
   923.4
  1055.7
  1129.1
   982.4
   863.2
  1003.7
  1122.5
  1259.9
  1195.1
  1324.7
   775.2
   951.5
  1108.2
  1179.7
  1117.1
  1279.6
  1127.3
   622.5
   445.6
   420.2
   794.7
   851.4
   752.1
   790.4
   373.6
   848.2
   628.8
   838.6
   718.7
   958.4
   546.9
   492.1
   638.4
   845.9
   812.3
   879.6
   667.9
   371.9
   255.9
   757.9
   757.9
   799.0
  1084.1
   923.4
  1164.2
  1225.6
  1129.1
  1127.7
   794.1
   430.8
   555.6
   824.4
   911.2
   767.1
   834.9
   881.3
   667.9
   848.2
  1074.3
  1009.2
   992.5
  1175.0
   678.2
   677.0
   371.9
   831.1
   956.8
   705.5
   608.4
   242.7
   430.8
   771.9
   771.9
   794.1
   555.6
   437.0
   835.0
   758.8
   911.2
   823.5
   834.6
   638.4
  1032.9
  1128.9
   936.9
   638.0
   923.4
  1084.1
  1107.5
  1225.6
   989.5
   642.9
   633.2
   917.1
   993.3
   973.3
  1026.4
   996.4