# vtk DataFile Version 3.0
Landscape
ASCII
DATASET UNSTRUCTURED_GRID
POINTS       2081 float
           0.000           0.000           0.000
        1600.000           0.000           0.000
        3200.000           0.000           0.000
        4800.000           0.000           0.000
        6400.000           0.000           0.000
        8000.000           0.000           0.000
        9600.000           0.000           0.000
       11200.000           0.000           0.000
       12800.000           0.000           0.000
       14400.001           0.000           0.000
       16000.000           0.000           0.000
       17600.000           0.000           0.000
       19200.000           0.000           0.000
       20799.999           0.000           0.000
       22400.000           0.000           0.000
       24000.001           0.000           0.000
       25599.999           0.000           0.000
       27200.000           0.000           0.000
       28800.001           0.000           0.000
       30400.000           0.000           0.000
       32000.000           0.000           0.000
       33599.999           0.000           0.000
       35200.000           0.000           0.000
       36800.001           0.000           0.000
       38399.999           0.000           0.000
       40000.000           0.000           0.000
       41599.998           0.000           0.000
       43200.002           0.000           0.000
       44800.000           0.000           0.000
       46399.999           0.000           0.000
       48000.002           0.000           0.000
       49600.000           0.000           0.000
       51199.999           0.000           0.000
       52800.002           0.000           0.000
       54400.001           0.000           0.000
       55999.999           0.000           0.000
       57600.002           0.000           0.000
       59200.001           0.000           0.000
       60799.999           0.000           0.000
       62399.998           0.000           0.000
       64000.001           0.000           0.000
       65599.999           0.000           0.000
       67199.998           0.000           0.000
       68800.001           0.000           0.000
       70400.000           0.000           0.000
       71999.998           0.000           0.000
       73600.001           0.000           0.000
       75200.000           0.000           0.000
       76799.998           0.000           0.000
       78400.002           0.000           0.000
       80000.000           0.000           0.000
           0.000        1600.000           0.000
        1820.535        1836.129         173.778
        4436.497        1560.645         227.463
        8231.839        1585.959         193.186
       11192.297        1979.624         140.522
       14535.388        1860.001          69.819
       17224.315        1919.917         325.491
       20899.237        1802.853         271.779
       23731.335        1792.943         196.967
       27507.238        1603.221         208.880
       30065.602        1613.570         376.905
       33371.579        1994.991          57.868
       37099.539        1414.823         337.750
       38196.713        1837.356          91.807
       41840.942        1855.796         294.153
       43418.644        1867.336          84.590
       49975.028        1831.460         361.252
       52954.322        1538.422         127.570
       55816.240        1531.934         166.729
       59004.449        1641.677          59.431
       60471.826        1510.939         284.788
       63784.513        1656.536         298.956
       67301.210        1771.228         123.184
       70381.695        1920.216         305.937
       72217.113        1448.806          91.687
       75069.462        1621.662         163.187
       78696.327        1722.356         241.413
       80000.000        1600.000           0.000
           0.000        3200.000           0.000
        3274.399        3217.174         433.184
        5160.666        3300.186         285.326
        6043.012        3262.445         129.020
        9502.865        3552.908         340.157
       11056.006        2840.019         209.565
       14606.628        2840.755         100.975
       17562.634        3511.308         265.092
       18833.142        3539.080          92.126
       22026.411        2868.051         263.248
       25600.029        2863.835         117.044
       27192.156        3106.980         370.369
       30375.600        2888.881         247.991
       33224.678        2857.386          81.731
       36841.038        3085.085         169.189
       40238.304        3524.647         135.972
       43557.179        3128.631         135.710
       46228.872        2830.415         153.062
       48146.017        3166.706         343.084
       51153.215        2952.745          97.954
       53124.514        2981.904         244.708
       56001.007        3429.944         459.671
       59307.581        3225.477         109.600
       62124.444        3154.870         287.751
       64132.610        2904.590         120.753
       67439.924        3451.420         524.624
       68998.763        3472.006         206.684
       72219.436        2879.026         153.345
       75532.535        3132.944         393.018
       78652.387        3551.841         172.867
       80000.000        3200.000           0.000
           0.000        4800.000           0.000
        1400.060        4439.660         183.372
        4786.648        4655.285         555.529
        8308.484        5116.135         649.686
       11454.778        4403.585         412.082
       14098.429        4923.032         199.922
       17912.789        5043.475         194.847
       20446.875        4859.061         174.494
       24108.597        4895.159         526.610
       27234.832        4431.193         356.423
       28696.423        4449.033         652.784
       32196.694        4589.490         153.631
       33867.228        4797.771         497.619
       34933.129        4760.558         577.339
       38067.139        5053.208         430.269
       41605.852        4581.133         406.495
       44854.687        5021.321         496.511
       48175.269        4416.823         474.913
       51163.202        5122.950         215.247
       54186.876        4703.411         549.459
       56317.818        4828.699         479.324
       59169.326        5108.954         189.975
       62536.999        4516.819         237.549
       65848.099        4445.450         347.266
       68694.276        4766.024         330.154
       71946.222        4752.098         284.881
       75433.121        5067.460         611.077
       78033.243        4664.320         188.908
       80000.000        4800.000           0.000
           0.000        6400.000           0.000
        2841.623        6773.290         233.136
        6245.685        6376.243         543.020
        7744.385        6030.238         393.091
       11368.686        6592.994         553.512
       14270.010        6704.916         442.993
       17330.427        6370.488         331.009
       19571.144        6573.041         382.871
       22641.152        6627.002         654.748
       23763.572        6012.529         609.475
       27463.089        6427.221         722.524
       30273.002        6504.167         507.740
       33884.178        6077.220         499.081
       35390.886        6255.305         451.143
       38075.664        6205.118         675.267
       40048.604        6389.405         310.648
       43255.311        6307.072         396.966
       46126.564        6231.346         588.485
       48285.057        6596.744         651.240
       51294.080        6157.575         341.751
       54250.249        6543.358         809.838
       57921.865        6224.397         369.340
       59558.312        6004.572         253.690
       62425.662        6132.109         347.475
       65724.696        6341.122         572.536
       68956.079        6674.843         705.681
       72380.520        6490.972         554.446
       75318.037        6459.550         602.824
       78160.955        6114.578         204.102
       80000.000        6400.000           0.000
           0.000        8000.000           0.000
        3576.129        8217.635         190.107
        5061.593        7652.754         293.061
        8105.944        7856.844         665.108
       11121.498        7830.817         759.805
       14531.786        8256.985         765.710
       16036.950        7761.051         705.788
       19087.239        8020.414         641.557
       22626.171        7850.784         812.856
       25653.785        8135.625         899.529
       28733.316        8014.857         757.441
       30647.917        7622.140         439.419
       31669.813        8123.016         636.313
       35544.551        8083.612         665.730
       38771.621        7743.567         601.670
       41941.639        8315.419         792.890
       44649.095        8053.831         724.833
       48005.993        8300.872         853.320
       51584.272        8303.210         851.471
       52951.115        7723.006         820.179
       55834.828        8389.314         805.932
       58839.904        7674.993         451.839
       60484.772        8202.290         670.017
       63784.723        8145.830         607.049
       67326.420        8175.747         948.457
       68571.734        8073.207        1000.465
       72193.925        8373.058         819.815
       73714.578        7878.720         561.253
       77044.523        8185.581         166.638
       78448.742        7636.455          88.541
       80000.000        8000.000           0.000
           0.000        9600.000           0.000
        3060.393        9702.503         141.766
[...]
POINT_DATA       2081
SCALARS height float 1
LOOKUP_TABLE default
     0.0
     0.0
     0.0
     0.0
     0.0
     0.0
     0.0
     0.0
     0.0
     0.0
     0.0
     0.0
     0.0
     0.0
     0.0
     0.0
     0.0
     0.0
     0.0
     0.0
     0.0
     0.0
     0.0
     0.0
     0.0
     0.0
     0.0
     0.0
     0.0
     0.0
     0.0
     0.0
     0.0
     0.0
     0.0
     0.0
     0.0
     0.0
     0.0
     0.0
     0.0
     0.0
     0.0
     0.0
     0.0
     0.0
     0.0
     0.0
     0.0
     0.0
     0.0
     0.0
   173.8
   227.5
   193.2
   140.5
    69.8
   325.5
   271.8
   197.0
   208.9
   376.9
    57.9
   337.8
    91.8
   294.2
    84.6
   361.3
   127.6
   166.7
    59.4
   284.8
   299.0
   123.2
   305.9
    91.7
   163.2
   241.4
     0.0
     0.0
   433.2
   285.3
   129.0
   340.2
   209.6
   101.0
   265.1
    92.1
   263.2
   117.0
   370.4
   248.0
    81.7
   169.2
   136.0
   135.7
   153.1
   343.1
    98.0
   244.7
   459.7
   109.6
   287.8
   120.8
   524.6
   206.7
   153.3
   393.0
   172.9
     0.0
     0.0
   183.4
   555.5
   649.7
   412.1
   199.9
   194.8
   174.5
   526.6
   356.4
   652.8
   153.6
   497.6
   577.3
   430.3
   406.5
   496.5
   474.9
   215.2
   549.5
   479.3
   190.0
   237.5
   347.3
   330.2
   284.9
   611.1
   188.9
     0.0
     0.0
   233.1
   543.0
   393.1
   553.5
   443.0
   331.0
   382.9
   654.7
   609.5
   722.5
   507.7
   499.1
   451.1
   675.3
   310.6
   397.0
   588.5
   651.2
   341.8
   809.8
   369.3
   253.7
   347.5
   572.5
   705.7
   554.4
   602.8
   204.1
     0.0
     0.0
   190.1
   293.1
   665.1
   759.8
   765.7
   705.8
   641.6
   812.9
   899.5
   757.4
   439.4
   636.3
   665.7
   601.7
   792.9
   724.8
   853.3
   851.5
   820.2
   805.9
   451.8
   670.0
   607.0
   948.5
  1000.5
   819.8
   561.3
   166.6
    88.5
     0.0
     0.0
   141.8
   423.9
   895.9
   750.1
  1000.3
   970.8
  1000.4
  1000.4
  1000.4
   923.4
   686.8
   948.8
   979.1
   922.7
   880.9
  1000.3
   895.5
  1000.3
  1000.3
  1000.3
  1000.3
   893.8
   899.7
   944.4
   980.2
  1000.5
   965.7
   502.4
   269.1
     0.0
     0.0
   371.5
   626.9
   862.2
  1000.3
  1000.3
  1000.4
  1000.4
  1000.4
  1000.3
   869.0
  1000.3
  1000.3
  1000.3
   998.9
  1000.3
  1000.3
  1000.3
  1000.3
  1000.3
  1000.1
   996.5
   955.5
   998.6
  1000.4
  1000.5
   969.7
   843.4
   834.0
   513.0
   164.6
     0.0
     0.0
   494.7
   601.9
   704.9
   977.2
  1000.3
  1000.3
  1000.3
  1000.2
  1000.4
  1000.4
  1000.3
  1000.3
  1000.3
  1000.3
  1000.3
  1000.5
  1000.3
  1000.3
  1000.3
  1000.2
  1000.2
  1000.2
   998.0
   996.6
  1000.2
  1000.4
  1000.4
   961.0
   845.8
   428.7
   252.2
   134.1
     0.0
     0.0
   127.2
   259.2
   422.1
   706.6
  1000.3
  1000.3
  1000.2
  1000.2
  1000.4
  1000.3
  1000.0
  1000.3
  1000.5
  1000.5
  1000.5
  1000.3
  1000.3
  1000.2
  1000.2
  1000.2
  1000.3
  1000.1
  1000.3
  1000.3
  1000.3
   897.5
   716.7
   305.3
     0.0
     0.0
   116.0
   282.3
   681.1
  1000.3
  1000.3
  1000.2
  1000.4
  1000.4
  1000.4
  1000.4
  1000.3
  1000.3
  1000.3
  1000.3
  1000.5
  1000.3
  1000.3
  1000.2
  1000.2
  1000.3
  1000.3
  1000.3
  1000.3
  1000.3
  1000.3
   966.0
   739.7
   279.1
   287.2
     0.0
     0.0
   314.5
   559.2
   917.9
  1000.3
  1000.3
  1000.3
  1000.4
  1000.4
  1000.4
  1000.4
  1000.3
  1000.3
  1000.3
  1000.3
  1000.2
  1000.2
  1000.3
  1000.3
  1000.2
  1000.2
  1000.3
  1000.3
  1000.3
  1000.3
  1000.3
   860.1
   496.0
    81.1
     0.0
     0.0
   414.8
   281.7
   728.3
   945.1
  1000.5
  1000.3
  1000.3
  1000.4
  1000.4
  1000.4
  1000.3
  1000.3
  1000.3
  1000.3
  1000.2
  1000.2
  1000.3
  1000.3
  1000.3
  1000.2
  1000.3
  1000.3
  1000.3
  1000.3
  1000.3
   767.4
   270.6
   328.0
     0.0
     0.0
    93.7
   244.7
   844.9
  1000.5
  1000.5
  1000.3
  1000.3
  1000.4
  1000.4
  1000.4
  1000.4
  1000.3
  1000.3
  1000.4
  1000.1
  1000.3
  1000.3
  1000.3
  1000.3
  1000.3
  1000.2
  1000.3
  1000.3
  1000.3
  1000.3
   839.8
   628.9
   605.6
   239.0
     0.0
     0.0
   282.3
   319.0
   717.3
  1000.5
  1000.3
  1000.3
  1000.3
  1000.4
  1000.4
  1000.3
  1000.4
  1000.4
  1000.4
  1000.4
  1000.4
  1000.1
  1000.1
  1000.4
  1000.3
  1000.1
  1000.1
  1000.4
  1000.3
  1000.3
  1000.3
   943.6
   592.8
   385.9
   110.8
     0.0
     0.0
   219.4
   461.5
   797.5
  1000.5
  1000.5
  1000.3
  1000.3
  1000.4
  1000.4
  1000.3
  1000.3
  1000.3
  1000.4
  1000.4
  1000.4
  1000.2
  1000.3
  1000.3
  1000.4
  1000.4
  1000.4
  1000.1
  1000.1
  1000.1
  1000.4
  1000.3
  1000.3
   939.9
   485.8
   222.5
     0.0
     0.0
   154.6
   403.0
   755.7
  1000.5
  1000.5
  1000.5
  1000.3
  1000.6
  1000.6
  1000.3
  1000.3
  1000.3
  1000.5
  1000.4
  1000.4
  1000.2
  1000.3
  1000.3
  1000.3
  1000.3
  1000.4
  1000.1
  1000.1
  1000.4
  1000.4
  1000.3
   876.7
   428.8
   240.3
   105.8
     0.0
     0.0
   145.5
   500.2
   891.6
  1000.3
  1000.5
  1000.3
  1000.3
  1000.2
  1000.6
  1000.4
  1000.3
  1000.3
  1000.5
  1000.4
  1000.4
  1000.3
  1000.3
  1000.3
  1000.3
  1000.3
  1000.1
  1000.1
  1000.4
  1000.3
  1000.3
   901.5
   562.3
   337.7
     0.0
     0.0
   366.2
   278.7
   509.0
  1000.3
  1000.3
  1000.3
  1000.2
  1000.4
  1000.4
  1000.3
  1000.3
  1000.5
  1000.4
  1000.4
  1000.3
  1000.2
  1000.3
  1000.4
  1000.1
  1000.1
  1000.1
  1000.3
  1000.2
   936.0
   777.8
   506.2
   141.5
     0.0
     0.0
   441.1
   176.2
   641.7
   893.6
  1000.3
  1000.3
  1000.3
  1000.2
  1000.4
  1000.4
  1000.3
  1000.5
  1000.3
  1000.3
  1000.3
  1000.3
  1000.4
  1000.3
  1000.1
  1000.3
  1000.3
  1000.1
  1000.3
  1000.3
  1000.2
   951.0
   376.8
   620.2
   277.1
     0.0
     0.0
    95.0
   171.6
   404.1
   704.8
  1000.3
  1000.2
  1000.2
  1000.3
  1000.3
  1000.3
  1000.3
  1000.3
  1000.5
  1000.5
  1000.3
  1000.3
  1000.3
  1000.4
  1000.3
  1000.3
  1000.3
  1000.3
  1000.3
  1000.3
  1000.3
  1000.3
  1000.3
   797.7
   215.3
   257.7
     0.0
     0.0
   211.9
   361.8
   739.4
  1000.3
  1000.3
  1000.4
  1000.3
  1000.3
  1000.3
  1000.3
  1000.3
  1000.5
  1000.3
  1000.3
  1000.4
  1000.4
  1000.4
  1000.4
  1000.3
  1000.3
  1000.3
  1000.3
  1000.3
  1000.3
  1000.3
   809.1
   241.7
    51.8
     0.0
     0.0
   191.3
   339.1
   692.6
   939.0
  1000.3
  1000.4
  1000.4
  1000.3
  1000.2
  1000.2
  1000.5
  1000.5
  1000.3
  1000.4
  1000.4
  1000.4
  1000.4
  1000.3
  1000.3
  1000.3
  1000.3
  1000.3
  1000.4
  1000.3
   997.4
   963.3
   391.5
   383.3
   282.3
     0.0
     0.0
   392.7
   386.5
   499.6
   797.9
  1000.4
  1000.3
  1000.4
  1000.3
  1000.2
  1000.2
  1000.5
  1000.5
  1000.3
  1000.4
  1000.4
  1000.3
  1000.4
  1000.4
  1000.3
  1000.3
  1000.4
  1000.3
  1000.1
  1000.4
   874.7
   803.3
   593.4
   109.7
     0.0
     0.0
    89.5
   202.1
   440.5
   689.6
  1000.4
  1000.3
  1000.2
  1000.3
  1000.4
  1000.4
  1000.5
  1000.3
  1000.4
  1000.2
  1000.3
  1000.4
  1000.4
  1000.3
  1000.4
  1000.4
  1000.3
  1000.1
  1000.4
   944.4
   830.3
   537.6
   257.5
     0.0
     0.0
   168.2
   495.3
   673.8
  1000.4
  1000.4
  1000.3
  1000.3
  1000.3
  1000.4
  1000.4
  1000.4
  1000.5
  1000.4
  1000.4
  1000.4
  1000.4
  1000.4
  1000.2
  1000.4
  1000.2
  1000.4
  1000.4
  1000.4
  1000.4
  1000.3
  1000.3
   875.3
   780.3
   438.0
   134.7
     0.0
     0.0
   409.1
   419.8
   566.8
   909.0
  1000.4
  1000.3
  1000.3
  1000.3
  1000.3
  1000.3
  1000.4
  1000.5
  1000.4
  1000.4
  1000.4
  1000.4
  1000.2
  1000.2
  1000.2
  1000.2
  1000.4
  1000.4
  1000.4
  1000.3
  1000.3
   774.4
   484.0
   575.7
   164.3
     0.0
     0.0
   185.7
   362.1
   265.9
   863.8
  1000.5
  1000.4
  1000.3
  1000.3
  1000.3
  1000.3
  1000.5
  1000.4
  1000.4
  1000.4
  1000.5
  1000.3
  1000.3
  1000.3
  1000.2
  1000.3
  1000.3
  1000.3
  1000.4
  1000.4
  1000.3
   970.1
   579.9
   180.8
   395.0
     0.0
     0.0
   106.7
   543.1
   637.1
   979.7
  1000.4
  1000.3
  1000.3
  1000.3
  1000.5
  1000.5
  1000.5
  1000.4
  1000.4
  1000.4
  1000.4
  1000.4
  1000.3
  1000.3
  1000.4
  1000.3
  1000.3
  1000.3
  1000.3
  1000.3
  1000.3
  1000.3
   957.2
   608.9
   194.3
   124.9
    69.2
     0.0
     0.0
    64.9
   246.8
   799.3
   990.5
  1000.5
  1000.3
  1000.3
  1000.3
  1000.3
  1000.5
  1000.5
  1000.4
  1000.4
  1000.4
  1000.4
  1000.4
  1000.3
  1000.3
  1000.3
  1000.3
  1000.3
  1000.3
  1000.3
  1000.3
  1000.3
  1000.3
   938.9
   825.6
   543.7
   314.9
   195.3
     0.0
     0.0
   201.2
   653.2
   815.6
  1000.5
  1000.3
  1000.4
  1000.4
  1000.5
  1000.4
  1000.4
  1000.4
  1000.4
  1000.3
  1000.3
  1000.3
  1000.4
  1000.4
  1000.4
  1000.2
  1000.2
  1000.4
  1000.3
  1000.2
   650.2
   496.2
   284.5
     0.0
     0.0
   194.4
   496.7
   800.6
   630.5
   946.4
  1000.3
  1000.4
  1000.4
  1000.4
  1000.3
  1000.4
  1000.4
  1000.2
  1000.2
  1000.3
  1000.3
  1000.3
  1000.4
  1000.4
  1000.4
  1000.4
  1000.5
  1000.2
  1000.4
  1000.4
  1000.2
   975.3
   566.4
   221.0
     0.0
     0.0
   154.4
   327.8
   726.3
   403.4
   811.9
  1000.3
  1000.4
  1000.4
  1000.4
  1000.3
  1000.4
  1000.4
  1000.4
  1000.3
  1000.3
  1000.4
  1000.4
  1000.4
  1000.4
  1000.4
  1000.5
  1000.1
  1000.2
  1000.4
  1000.2
   862.9
   462.6
   164.0
     0.0
     0.0
    47.6
   127.9
   176.7
   821.0
   741.5
  1000.3
  1000.1
  1000.1
  1000.3
  1000.4
  1000.4
  1000.4
  1000.4
  1000.4
  1000.3
  1000.2
  1000.4
  1000.4
  1000.4
  1000.4
  1000.2
  1000.3
  1000.3
  1000.3
  1000.4
   966.9
   841.9
   875.6
   689.7
   272.4
     0.0
     0.0
   285.9
   383.4
   627.0
   987.2
  1000.3
  1000.1
  1000.1
  1000.2
  1000.3
  1000.4
  1000.4
  1000.4
  1000.4
  1000.3
  1000.3
  1000.4
  1000.3
  1000.4
  1000.4
  1000.4
  1000.2
  1000.3
  1000.2
   995.7
   969.2
   483.7
   425.8
   133.7
    63.5
     0.0
     0.0
   295.9
   619.4
   945.0
  1000.3
  1000.3
  1000.1
  1000.2
  1000.2
  1000.3
  1000.4
  1000.4
  1000.5
  1000.3
  1000.3
  1000.3
  1000.3
  1000.3
  1000.3
  1000.4
  1000.1
  1000.3
  1000.3
  1000.3
  1000.2
  1000.3
  1000.3
   687.4
   220.0
   323.2
     0.0
     0.0
   106.9
   629.9
   864.3
   927.3
  1000.3
  1000.1
  1000.1
  1000.2
  1000.2
  1000.3
  1000.4
  1000.2
  1000.5
  1000.3
  1000.3
  1000.3
  1000.3
  1000.1
  1000.1
  1000.3
  1000.3
  1000.3
  1000.4
  1000.3
  1000.3
   742.9
   350.5
   260.1
     0.0
     0.0
   159.4
   383.6
   821.3
  1000.3
  1000.3
  1000.1
  1000.2
  1000.3
  1000.3
  1000.4
  1000.2
  1000.3
  1000.3
  1000.2
  1000.2
  1000.2
  1000.2
  1000.2
  1000.2
  1000.2
  1000.3
  1000.3
  1000.4
  1000.4
  1000.6
  1000.3
   821.3
   598.5
   186.5
     0.0
     0.0
   149.4
   568.3
   694.5
   799.7
  1000.3
  1000.3
  1000.3
  1000.2
  1000.2
  1000.1
  1000.2
  1000.2
  1000.2
  1000.2
  1000.3
  1000.2
  1000.2
  1000.2
  1000.3
  1000.2
  1000.1
  1000.3
  1000.4
  1000.4
  1000.6
   940.3
   762.1
   334.7
   400.0
   347.7
     0.0
     0.0
   172.2
   604.9
   895.0
   999.2
  1000.3
  1000.3
  1000.2
  1000.2
  1000.1
  1000.2
  1000.2
  1000.2
  1000.2
  1000.2
  1000.4
  1000.4
  1000.4
  1000.4
  1000.3
  1000.3
  1000.1
  1000.3
  1000.3
  1000.3
   982.8
   851.6
   575.6
   111.5
    58.9
     0.0
     0.0
    77.4
   322.3
   428.4
   976.0
  1000.3
  1000.3
  1000.4
  1000.2
  1000.2
  1000.2
  1000.2
  1000.5
  1000.2
  1000.2
  1000.2
  1000.4
  1000.4
  1000.4
  1000.3
  1000.3
  1000.1
  1000.3
  1000.3
  1000.3
  1000.3
   918.8
   487.7
   311.9
   230.3
   275.2
     0.0
     0.0
   164.7
   763.7
   797.5
  1000.4
  1000.3
  1000.4
  1000.2
  1000.2
  1000.2
  1000.5
  1000.5
  1000.2
  1000.2
  1000.4
  1000.4
  1000.4
  1000.3
  1000.3
  1000.3
  1000.1
  1000.3
  1000.3
  1000.3
  1000.3
  1000.4
   845.3
   513.6
   426.6
   170.7
     0.0
     0.0
   243.5
   467.7
   530.1
  1000.4
  1000.3
  1000.3
   986.0
  1000.2
  1000.2
  1000.2
   935.9
  1000.5
  1000.5
  1000.3
  1000.3
  1000.4
  1000.4
  1000.5
  1000.3
  1000.3
  1000.3
  1000.3
  1000.4
  1000.4
  1000.4
  1000.4
  1000.4
   730.6
   416.6
   146.6
     0.0
     0.0
   103.6
   521.9
   764.6
  1000.3
  1000.3
  1000.3
   937.4
   953.5
   907.3
   789.6
   978.1
  1000.5
  1000.3
  1000.3
  1000.3
  1000.3
  1000.5
  1000.3
  1000.3
  1000.3
  1000.3
  1000.3
  1000.2
  1000.4
  1000.4
  1000.4
   930.2
   654.5
   482.8
     0.0
     0.0
   271.9
   192.2
   431.4
   817.0
   883.0
   830.6
   674.7
   767.5
   747.5
   439.0
   857.4
  1000.6
  1000.6
   807.8
  1000.3
  1000.3
  1000.3
   857.1
   841.4
   970.1
  1000.3
  1000.2
  1000.4
  1000.3
  1000.5
  1000.5
   814.0
   255.4
   201.9
     0.0
     0.0
   361.5
   309.3
   809.3
   664.4
   829.4
   827.5
   478.7
   674.7
   374.8
   527.3
   926.3
   789.8
   971.6
   580.4
   702.2
   908.9
   791.6
   486.0
   651.0
   865.5
   949.0
  1000.2
   930.2
   910.1
   685.7
   981.6
   862.5
   502.6
   111.1
     0.0
     0.0
   159.1
   417.6
   641.6
   380.0
   525.1
   370.5
   468.8
   622.2
   196.1
   633.9
   756.7
   793.7
   603.7
   328.5
   590.6
   552.9
   446.0
   342.5
   686.4
   929.4
   584.4
   679.2
   518.5
   539.1
   452.4
   725.3
   525.7
   428.7
   239.9
     0.0
     0.0
   247.6
   421.5
   341.4
   368.5
   156.2
   545.5
   484.5
   199.9
   519.8
   122.7
   281.9
   451.2
   422.5
   537.2
   181.6
   266.6
   557.0
   283.0
   149.1
   642.8
   660.4
   301.4
   582.4
   289.7
   648.5
   217.1
   784.3
   340.2
   352.3
   264.0
     0.0
     0.0
   338.8
   162.0
   549.1
    83.2
   484.9
   317.7
   275.9
    79.4
   209.9
   385.0
    80.1
   136.9
   234.6
   333.7
   327.5
   270.3
   109.9
   474.2
   107.9
   353.0
    70.9
   427.0
   392.5
   135.6
   242.5
   345.9
   105.9
   416.9
   310.5
   128.7
   240.0
   325.9
     0.0
     0.0
   367.1
   262.7
   181.6
   269.0
   134.0
   262.6
   115.6
   243.4
    56.1
   279.9
   161.2
   125.4
    65.4
   245.5
    69.8
   282.2
   217.9
   102.1
    76.9
   118.6
   105.0
   176.6
   145.8
   124.5
   281.1
   418.6
   175.6
     0.0
     0.0
     0.0
     0.0
     0.0
     0.0
     0.0
     0.0
     0.0
     0.0
     0.0
     0.0
     0.0
     0.0
     0.0
     0.0
     0.0
     0.0
     0.0
     0.0
     0.0
     0.0
     0.0
     0.0
     0.0
     0.0
     0.0
     0.0
     0.0
     0.0
     0.0
     0.0
     0.0
     0.0
     0.0
     0.0
     0.0
     0.0
     0.0
     0.0
     0.0
     0.0
     0.0
     0.0
     0.0
     0.0
     0.0
     0.0
     0.0
     0.0
     0.0
     0.0
   203.6
   482.6
   577.0
   653.4
   465.1
   688.0
   823.1
   986.9
  1000.3
  1000.3
  1000.3
  1000.4
  1000.5
  1000.3
  1000.3
  1000.1
   253.4
   927.1
  1000.3
  1000.3
  1000.4
  1000.4
  1000.2
   729.4
  1000.4
  1000.2
  1000.2
  1000.3
  1000.3
  1000.4
  1000.3
  1000.2
  1000.2
  1000.4
   606.1
   914.5
   899.5
   527.7
   487.3
  1000.5
    57.9
   182.2
    25.1
    42.9
   286.9
    44.1
    61.7
    50.4
    63.0
    43.7
   118.8
    56.1
    57.4
    73.1
   139.8
    44.6
   136.9
    86.4
    94.7
    93.4
    63.4
   157.3
    78.4
   174.2
    55.5
   133.5
    53.4
   128.4
    35.6
   147.2
   159.1
    41.9
    94.5
    76.0
    45.2
    64.3
   149.3
   210.1
   124.2
    48.6
    91.2
   180.0
    44.4
    75.7
   168.1
    88.1
   176.2
    50.6
    33.1
    85.3
   129.3
   109.2
    70.8
   118.1
   113.7
   137.9
   132.3
    47.1
   125.1
    88.6
    75.7
    82.3
   114.3
    46.5
   118.4
   148.6
    48.5
    72.7
   128.4
   113.9
   145.9
    81.9
    40.8
    36.8
    60.7
   132.6
    35.7
    51.9
    61.1
   144.2
   148.0
   102.2
    76.5
    51.7
    27.7
   123.1
    75.8
    60.7
    32.1
   147.4
    55.9
   137.4
   201.9
   129.5
   137.0
   132.2
   123.7
    30.8
   160.1
    37.2
   598.1
   605.1
   798.0
   774.4
   752.4
   841.5
  1000.5
   980.6
   960.6
  1000.3
  1000.4
  1000.2
  1000.3
  1000.4
  1000.3
  1000.3
  1000.3
   526.9
  1000.3
   987.9
   696.6
  1000.3
   914.7
  1000.4
  1000.4
  1000.1
  1000.2
  1000.5
  1000.4
  1000.4
  1000.4
  1000.3
  1000.4
  1000.3
  1000.3
  1000.4
  1000.4
  1000.4
  1000.2
   728.1
   231.7
  1000.1
  1000.3
  1000.3
  1000.3
  1000.2
  1000.2
  1000.6
  1000.3
  1000.3
  1000.3
   513.3
  1000.2
  1000.1
   317.3
  1000.2
  1000.3
  1000.3
   760.4
  1000.4
  1000.3
   729.7
   736.4
   854.4
   449.3
   454.6
   584.8
   476.7
   613.9
   251.3
  1000.4
  1000.3
  1000.2
  1000.3
  1000.3
  1000.3
  1000.3
   555.8
   742.6
   759.7
  1000.4
  1000.2
  1000.3
   523.0
   925.4
   533.8
  1000.3
  1000.3
  1000.1
  1000.2
  1000.4
  1000.4
  1000.3
  1000.2
  1000.3
  1000.3
  1000.2
  1000.6
  1000.3
  1000.2
  1000.1
  1000.2
   538.2
   523.2
  1000.3
   595.3
  1000.3
  1000.3
   360.9
    79.2
  1000.4
   268.6
   199.1
   297.2
   208.8
   122.7
   181.7
   922.5
  1000.3
  1000.3
   131.2
   182.6
   176.6
   120.8
   141.6
    82.6
   290.7
   199.5
   178.1
   259.6
   202.7
   338.7
   158.2
   402.5
   126.1
   136.3
   269.0
   183.3
   117.9
   237.0
   425.4
   163.3
   188.9
   351.1
   272.6
   211.8
   220.2
   337.9
   300.8
   381.1
   156.0
   224.1
   294.0
   262.6
   311.0
   237.5
   234.7
   229.7
   299.8
   183.4
   243.4
   138.4
   172.2
   315.4
   310.6
   220.6
   271.8
   202.8
   145.4
   261.2
   162.7
   204.9
   266.9
   317.1
   209.6
   279.7
   342.5
   194.8
   255.9
   267.2
   344.5
   286.1
   374.1
   257.9
   331.3
   279.8
   327.1
   250.1
   372.0
   261.9
   182.9
   492.3
   316.6
   215.0
   477.0
   332.9
   282.6
   471.5
   425.7
   355.8
   317.2
   278.5
   397.5
   331.0
   411.9
   553.5
   364.6
   416.6
   277.2
   348.3
   334.2
   229.6
   294.9
   272.5
   392.2
   291.4
   315.1
   413.7
   231.9
   383.5
   424.9
   260.3
   517.0
   382.4
   316.9
   432.0
   483.6
   214.1
   267.8
   350.4
   286.3
   395.9
   592.5
   290.3
   268.3
   194.9
   416.3
   491.5
   381.0
   469.4
   529.8
   534.2
   514.6
   569.7
   509.3
   263.1
   511.5
   401.1
   535.3
   500.5
   533.5
   569.2
   568.8
   421.9
   441.8
   445.2
   444.3
   414.4
   519.4
   442.7
   526.7
   388.4
   285.6
   324.3
   489.8
   473.0
   542.3
   427.0
   599.4
   342.3
   443.7
   563.8
   596.1
   600.0
   522.7
   359.9
   604.3
   545.3
   609.9
   635.0
   591.0
   616.1
   592.8
   578.0
   641.3
   558.5
   640.9
   679.7
   651.9
   631.6
   609.5
   669.2
   652.7
   689.3
   724.1
   709.1
   602.3
   651.1
   666.5
   689.2
   645.1
   676.0
   656.2
   694.5
   681.4
   718.0
   663.2
   649.7
   707.4
   684.6
   584.1
   752.2
   670.7
   710.1
   705.2
   750.7
   756.0
   488.0
   471.1
   776.8
   789.7
   779.3
   779.2
SCALARS discharge float 1
LOOKUP_TABLE default
  0.1005E+05
  0.1914E+07
  0.1284E+08
  0.1982E+07
  0.3414E+08
  0.1221E+07
  0.2546E+08
  0.1363E+07
  0.3090E+07
  0.1290E+07
  0.5436E+08
  0.2362E+07
  0.7453E+08
  0.1483E+07
  0.1581E+08
  0.2118E+07
  0.3323E+08
  0.1856E+07
  0.6451E+07
  0.2336E+07
  0.8181E+08
  0.1986E+07
  0.4060E+07
  0.1219E+07
  0.1837E+07
  0.7791E+08
  0.2111E+07
  0.3872E+07
  0.6075E+08
  0.1948E+07
  0.7402E+07
  0.1893E+07
  0.4681E+08
  0.1560E+07
  0.1347E+08
  0.1038E+07
  0.9606E+08
  0.3252E+07
  0.1831E+07
  0.7155E+07
  0.1133E+07
  0.6094E+08
  0.1040E+07
  0.2214E+08
  0.2917E+08
  0.8395E+06
  0.1904E+07
  0.1005E+07
  0.1136E+08
  0.1128E+07
  0.7266E+04
  0.3332E+05
  0.6722E+07
  0.2922E+07
  0.4292E+07
  0.1041E+08
  0.4935E+08
  0.1331E+07
  0.2216E+07
  0.4695E+07
  0.3505E+07
  0.8822E+06
  0.6645E+08
  0.1190E+07
  0.3162E+08
  0.1581E+07
  0.3700E+08
  0.1037E+07
  0.1096E+08
  0.7766E+07
  0.8523E+08
  0.1509E+07
  0.9415E+06
  0.1595E+08
  0.1038E+07
  0.2695E+08
  0.8221E+07
  0.2486E+07
  0.7663E+04
  0.3267E+05
  0.1786E+07
  0.4001E+07
  0.2391E+08
  0.4424E+07
  0.7455E+07
  0.4478E+08
  0.2562E+07
  0.6740E+08
  0.3857E+07