# vtk DataFile Version 3.0
Landscape
ASCII
DATASET UNSTRUCTURED_GRID
POINTS      24156 float
           0.000           0.000           0.000
        1600.000           0.000           0.000
           0.000        1600.000           0.000
         533.333         533.333           0.000
        1820.535        1836.129         173.778
        1600.000           0.000           0.000
        3200.000           0.000           0.000
        2206.845         612.043         366.537
        1763.706        1362.983         366.537
        4436.497        1560.645         227.463
        3200.000           0.000           0.000
        4800.000           0.000           0.000
        4145.499         520.215         356.813
        4507.161        1257.262         356.813
        6234.052        1737.813          63.041
        4800.000           0.000           0.000
        6400.000           0.000           0.000
        5811.350         579.271         368.581
        5691.137        1079.898         368.581
        8231.839        1585.959         193.186
        6400.000           0.000           0.000
        8000.000           0.000           0.000
        7999.391        1220.403         379.802
        7821.942        1231.081         410.892
        8176.840        1209.725         348.712
        8231.839        1585.959         193.186
        8000.000           0.000           0.000
        9600.000           0.000           0.000
        8610.613         528.653         348.712
        8176.840        1209.725         348.712
       10114.256        2299.635         182.550
       10506.534         877.165          57.869
       11192.297        1979.624         140.522
       10604.362        1718.808         387.809
       10600.428        2155.317         387.809
       11192.297        1979.624         140.522
       11200.000           0.000           0.000
       12800.000           0.000           0.000
       11405.841        1433.776         389.292
       11194.509        1411.093         369.060
       11617.173        1456.458         409.525
       14535.388        1860.001          69.819
       12800.000           0.000           0.000
       14400.001           0.000           0.000
       14191.431        1176.147         365.484
       13897.243        1176.033         387.591
       14485.620        1176.262         343.377
       14535.388        1860.001          69.819
       14400.001           0.000           0.000
       16000.000           0.000           0.000
       14978.463         620.000         343.377
       14485.620        1176.262         343.377
       17224.315        1919.917         325.491
       16000.000           0.000           0.000
       17600.000           0.000           0.000
       16941.438         639.972         401.947
       17258.436        1745.546         401.947
       18961.790        1751.968          43.684
       17600.000           0.000           0.000
       19200.000           0.000           0.000
       18587.263         583.989         358.389
       18404.391        1034.863         358.389
        4436.497        1560.645         227.463
        1820.535        1836.129         173.778
        3200.000           0.000           0.000
        3152.344        1132.258         550.971
        3395.347        1670.287         550.971
       23731.335        1792.943         196.967
       22400.000           0.000           0.000
       24000.001           0.000           0.000
       23377.112         597.648         367.507
       23793.477        1378.237         367.507
       25712.931        1511.197          56.084
       24000.001           0.000           0.000
       25599.999           0.000           0.000
       25104.310         503.732         367.665
       25045.644         922.498         367.665
       25712.931        1511.197          56.084
       27200.000           0.000           0.000
       27507.238        1603.221         208.880
       26806.723        1038.139         377.232
       26292.759         921.961         357.721
       27439.971        1252.211         355.580
       26991.180        1576.754         416.754
       27507.238        1603.221         208.880
       27200.000           0.000           0.000
       28800.001           0.000           0.000
       27835.746         534.407         355.580
       27439.971        1252.211         355.580
       30065.602        1613.570         376.905
       28800.001           0.000           0.000
       30400.000           0.000           0.000
       29755.201         537.857         418.316
       30016.332        1550.754         418.316
       31040.554         771.051         182.155
       30065.602        1613.570         376.905
       30400.000           0.000           0.000
       30587.282        1004.971         390.530
       30887.953         587.361         281.265
       30286.612        1422.581         499.796
       31415.600        1997.898         131.216
       33371.579        1994.991          57.868
       33224.678        2857.386          81.731
       32148.915        2173.901         422.551
       32139.053        1996.823         414.514
       32158.778        2350.979         430.588
       34548.701        1811.800         297.245
       34459.486        2336.808         199.131
       33371.579        1994.991          57.868
       34126.589        2047.867         362.266
       34525.755        1946.830         362.266
        6234.052        1737.813          63.041
        6043.012        3262.445         129.020
        5160.666        3300.186         285.326
        5812.577        2766.815         387.807
        5396.848        3290.084         387.807
       37099.539        1414.823         337.750
       35200.000           0.000           0.000
       36800.001           0.000           0.000
       36366.513         471.608         368.358
       37087.224        1356.653         368.358
       37099.539        1414.823         337.750
       36800.001           0.000           0.000
       38399.999           0.000           0.000
       37145.299        1329.255         386.431
       37087.224        1356.653         368.358
       37203.375        1301.857         404.505
       39191.316         917.871          42.893
       38399.999           0.000           0.000
       40000.000           0.000           0.000
       39197.105         305.957         259.084
       38840.666         511.143         259.084
       40125.312        1643.514          57.376
       41599.998           0.000           0.000
       41840.942        1855.796         294.153
       41188.751        1166.437         393.308
       40697.848        1005.432         365.487
       41810.352        1620.191         393.401
       41505.250        1814.260         432.048
       41840.942        1855.796         294.153
       41599.998           0.000           0.000
       43200.002           0.000           0.000
       42213.647         618.599         393.401
       41810.352        1620.191         393.401
       43418.644        1867.336          84.590
       43200.002           0.000           0.000
       44800.000           0.000           0.000
       43806.215         622.445         350.329
       43341.500        1208.482         350.329
       34548.701        1811.800         297.245
       37099.539        1414.823         337.750
       36841.038        3085.085         169.189
       36163.093        2103.903         596.930
       36006.313        1584.958         658.364
       37031.019        1857.553         517.517
       35143.813        2142.357         571.122
       48116.282        1628.322         139.810
       49975.028        1831.460         361.252
       48146.017        3166.706         343.084
       49386.442        2108.237         596.342
       49610.658        1791.639         515.299
       49162.227        2424.835         677.384
       10114.256        2299.635         182.550
        8231.839        1585.959         193.186
       10506.534         877.165          57.869
        8999.802        1658.609         483.042
        9135.080        1928.403         508.843
        8864.524        1388.815         457.241
       52954.322        1538.422         127.570
       52800.002           0.000           0.000
       54400.001           0.000           0.000
       53384.775         512.807         329.138
       52904.517        1041.914         329.138
       55816.240        1531.934         166.729
       54400.001           0.000           0.000
       55999.999           0.000           0.000
       55655.790        1120.596         363.010
       55444.847        1130.201         386.651
       55866.733        1110.990         339.369
       55816.240        1531.934         166.729
       55999.999           0.000           0.000
       57600.002           0.000           0.000
       56472.081         510.645         339.369
       55866.733        1110.990         339.369
       38196.713        1837.356          91.807
       37099.539        1414.823         337.750
       38399.999           0.000           0.000
       37898.751        1084.060         380.268
       38267.334        1199.066         348.495
       37203.375        1301.857         404.505
       37272.230        1481.328         416.640
       59004.449        1641.677          59.431
       57600.002           0.000           0.000
       59200.001           0.000           0.000
       58601.484         547.226         323.086
       59081.768         992.578         323.086
       25712.931        1511.197          56.084
       25600.029        2863.835         117.044
       23731.335        1792.943         196.967
       24348.476        1939.973         457.380
       24387.821        2169.155         484.181
       24309.131        1710.792         430.580
[...]
POINT_DATA      24156
SCALARS height float 1
LOOKUP_TABLE default
     0.0
     0.0
     0.0
     0.0
   173.8
     0.0
     0.0
   366.5
   366.5
   227.5
     0.0
     0.0
   356.8
   356.8
    63.0
     0.0
     0.0
   368.6
   368.6
   193.2
     0.0
     0.0
   379.8
   410.9
   348.7
   193.2
     0.0
     0.0
   348.7
   348.7
   182.6
    57.9
   140.5
   387.8
   387.8
   140.5
     0.0
     0.0
   389.3
   369.1
   409.5
    69.8
     0.0
     0.0
   365.5
   387.6
   343.4
    69.8
     0.0
     0.0
   343.4
   343.4
   325.5
     0.0
     0.0
   401.9
   401.9
    43.7
     0.0
     0.0
   358.4
   358.4
   227.5
   173.8
     0.0
   551.0
   551.0
   197.0
     0.0
     0.0
   367.5
   367.5
    56.1
     0.0
     0.0
   367.7
   367.7
    56.1
     0.0
   208.9
   377.2
   357.7
   355.6
   416.8
   208.9
     0.0
     0.0
   355.6
   355.6
   376.9
     0.0
     0.0
   418.3
   418.3
   182.2
   376.9
     0.0
   390.5
   281.3
   499.8
   131.2
    57.9
    81.7
   422.6
   414.5
   430.6
   297.2
   199.1
    57.9
   362.3
   362.3
    63.0
   129.0
   285.3
   387.8
   387.8
   337.8
     0.0
     0.0
   368.4
   368.4
   337.8
     0.0
     0.0
   386.4
   368.4
   404.5
    42.9
     0.0
     0.0
   259.1
   259.1
    57.4
     0.0
   294.2
   393.3
   365.5
   393.4
   432.0
   294.2
     0.0
     0.0
   393.4
   393.4
    84.6
     0.0
     0.0
   350.3
   350.3
   297.2
   337.8
   169.2
   596.9
   658.4
   517.5
   571.1
   139.8
   361.3
   343.1
   596.3
   515.3
   677.4
   182.6
   193.2
    57.9
   483.0
   508.8
   457.2
   127.6
     0.0
     0.0
   329.1
   329.1
   166.7
     0.0
     0.0
   363.0
   386.7
   339.4
   166.7
     0.0
     0.0
   339.4
   339.4
    91.8
   337.8
     0.0
   380.3
   348.5
   404.5
   416.6
    59.4
     0.0
     0.0
   323.1
   323.1
    56.1
   117.0
   197.0
   457.4
   484.2
   430.6
   299.0
     0.0
     0.0
   403.0
   420.9
   385.2
    44.1
     0.0
     0.0
   243.5
   243.5
   229.7
    61.7
   123.2
   471.5
   471.5
    69.8
   140.5
     0.0
   439.0
   387.6
   409.5
   493.5
    91.7
     0.0
     0.0
   339.3
   311.3
   367.2
   163.2
     0.0
     0.0
   373.8
   398.5
   349.2
    79.2
   360.9
   163.2
   385.7
   385.7
   284.8
    59.4
     0.0
   368.0
   323.1
   412.9
   136.9
   287.8
   284.8
   559.0
   618.9
   499.0
    43.7
   271.8
    92.1
   472.3
   431.0
   513.5
   118.8
   263.2
   271.8
   497.9
   556.3
   439.6
   325.5
    69.8
     0.0
   504.4
   504.4
    57.9
   193.2
     0.0
   457.2
   457.2
   173.8
     0.0
     0.0
   428.7
   366.5
   490.8
   271.8
     0.0
     0.0
   404.2
   426.3
   382.1
   129.5
     0.0
   118.8
   285.0
   285.0
    44.6
     0.0
     0.0
   353.3
   353.3
    44.6
     0.0
   127.6
   364.1
   361.6
   329.1
   395.8
    63.0
   227.5
     0.0
   385.4
   368.6
   356.8
   426.7
    44.6
   127.6
    98.0
   426.2
   456.7
   395.8
    91.7
     0.0
     0.0
   311.3
   311.3
   101.0
   209.6
   140.5
   528.3
   515.3
   541.2
   166.7
   127.6
     0.0
   451.4
   386.7
   516.2
   376.9
   208.9
     0.0
   512.2
   418.3
   606.1
   412.1
   209.6
   101.0
   557.2
   541.2
   573.3
   284.8
     0.0
     0.0
   369.5
   369.5
   136.9
     0.0
     0.0
   396.0
   396.0
   220.2
   425.4
   117.0
   515.1
   502.2
   528.0
   174.5
   271.8
   263.2
   568.3
   584.5
   556.3
   559.9
   265.1
   101.0
   325.5
   547.1
   531.3
   580.3
   536.4
    43.7
    92.1
   265.1
   451.0
   451.0
   131.2
    25.1
    57.9
   414.5
   414.5
    73.1
   153.1
   135.7
   485.4
   506.2
   464.6
   139.8
   286.9
   361.3
   498.4
   571.0
   515.3
   432.6
   169.2
   337.8
    91.8
   467.1
   416.6
   517.5
    57.4
    42.9
     0.0
   287.9
   287.9
    57.4
    91.8
    42.9
   342.7
   397.5
   287.9
   248.0
   370.4
   208.9
   609.8
   540.9
   596.4
   660.9
    84.6
   294.2
     0.0
   394.8
   350.3
   439.3
   139.8
    73.1
     0.0
   400.0
   326.4
   401.2
   461.4
   356.4
   117.0
   370.4
   555.9
   480.2
   631.5
   123.2
     0.0
     0.0
   377.3
   353.7
   400.8
   120.8
    50.4
   305.9
   426.0
   426.0
   244.7
   127.6
   166.7
   545.1
   516.2
   574.1
    73.1
   135.7
    84.6
   441.9
   419.2
   464.6
    59.4
   166.7
     0.0
   498.2
   498.2
    91.7
   305.9
     0.0
   441.2
   406.3
   476.1
   163.2
    91.7
     0.0
   434.3
   398.5
   367.2
   500.9
   136.9
   284.8
     0.0
   429.6
   396.0
   369.5
   499.0
   139.8
   153.1
    73.1
   472.8
   484.3
   461.4
   234.7
   343.1
   474.9
   573.5
   506.7
   640.2
    98.0
   343.1
   361.3
   574.7
   468.9
   677.4
   548.4
   229.7
    44.1
    61.7
   441.7
   500.4
   374.5
   471.5
    50.4
   123.2
     0.0
   420.4
   400.8
   439.9
   211.8
   193.2
   340.2
   578.6
   562.3
   578.0
   600.0
   241.4
     0.0
     0.0
   409.6
   439.4
   379.8
   241.4
     0.0
     0.0
   486.6
   379.8
   593.5
   153.3
    91.7
   163.2
   521.2
   500.9
   541.6
   360.9
   241.4
   172.9
   579.4
   632.9
   515.3
   615.1
   153.3
   206.7
   305.9
   557.8
   572.6
   532.7
   565.9
     0.0
   241.4
     0.0
   522.3
   593.5
   451.2
    63.0
   285.3
   227.5
   495.8
   565.0
   426.7
   182.6
   209.6
   340.2
   482.3
   549.4
   415.2
   433.2
   173.8
   227.5
   575.1
   551.0
   599.3
     0.0
     0.0
   173.8
   511.9
   490.8
   533.0
   183.4
   173.8
   433.2
   556.7
   533.3
   580.2
   285.3
   433.2
   227.5
   597.4
   565.0
   599.3
   635.9
   555.5
   433.2
   285.3
   705.8
   775.8
   635.9
   411.9
   425.4
   526.6
   731.9
   729.8
   724.0
   738.3
    56.1
   370.4
   117.0
   480.2
   480.2
   555.5
   183.4
   433.2
   649.5
   775.8
   580.2
   643.8
   183.4
     0.0
     0.0
   467.7
   503.2
   432.2
   244.7
    98.0
   127.6
   464.2
   456.7
   471.7
   101.0
   140.5
    69.8
   504.4
   493.5
   515.3
   101.0
    69.8
   325.5
   517.8
   504.4
   531.3
   129.5
   118.8
   271.8
   362.3
   439.6
   285.0
    56.1
   197.0
     0.0
   389.1
   367.7
   367.5
   430.6
   605.1
   340.2
   412.1
   738.6
   737.3
   688.6
   805.3
    43.7
   265.1
   325.5
   492.4
   427.0
   580.3
   451.0
   199.9
   412.1
   101.0
   592.4
   573.3
   611.6
   248.0
   208.9
   376.9
   591.7
   606.1
   596.4
   553.2
   131.2
   376.9
   182.2
   455.6
   475.2
   499.8
   411.3
   237.5
   199.1
   169.2
   543.4
   532.7
   554.2
   135.7
   294.2
    84.6
   479.0
   518.8
   439.3
   131.2
   182.2
    25.1
   393.1
   374.9
   411.3
   131.2
   153.6
   248.0
   523.2
   542.6
   503.8
    73.1
    84.6
     0.0
   419.2
   419.2
   203.6
   294.2
   135.7
   545.7
   572.6
   518.8
   199.1
    81.7
    57.9
   390.2
   390.2
   220.2
   356.4
   555.8
   675.6
   604.6
   746.5
   174.5
   194.8
    92.1
   534.6
   534.6
   430.3
    91.8
   136.0
   522.8
   559.1
   475.3
   568.5
   652.8
   370.4
   248.0
   698.6
   736.2
   660.9
   174.5
    92.1
   271.8
   549.0
   584.5
   513.5
    44.6
    98.0
   361.3
   468.9
   468.9
    44.1
   120.8
   299.0
   442.3
   442.3
   267.2
   166.7
    59.4
   530.6
   584.2
   498.2
   498.9
   109.6
    59.4
   284.8
   455.3
   412.9
   497.8
   496.5
   135.7
   153.1
   545.6
   506.2
   584.9
   120.8
   123.2
    50.4
   445.3
   450.8
   439.9
   120.8
   287.8
   299.0
   547.5
   622.1
   442.3
   502.3
   392.2
   474.9
   651.2
   765.9
   718.9
   828.1
   772.2
   215.2
    98.0
   244.7
   532.9
   471.7
   594.2
   204.9
   310.6
   430.3
   641.8
   687.4
   596.2
   459.7
   244.7
   166.7
   618.5
   574.1
   662.8
   267.2
    59.4
   109.6
   498.9
   498.9
   287.8
   109.6
   284.8
   556.8
   618.9
   497.8
   543.7
   549.5
   215.2
   244.7
   626.1
   594.2
   658.0
   153.3
   305.9
    91.7
   504.4
   476.1
   532.7
   229.7
   347.3
   120.8
   525.6
   532.3
   518.9
   229.7
   120.8
    44.1
   509.6
   518.9
   500.4
   190.0
   109.6
   287.8
   582.6
   543.7
   621.6
   411.9
   263.2
   425.4
   676.6
   652.2
   620.4
   738.3
   344.5
   163.2
   393.0
   655.5
   610.1
   700.8
   120.8
   524.6
   123.2
   502.9
   450.8
   555.0
   237.0
   194.8
   482.6
   602.3
   585.8
   618.7
   360.9
   393.0
   163.2
   669.9
   669.9
     0.0
   241.4
     0.0
   451.2
   451.2
   344.5
   611.1
   653.4
   791.1
   721.8
   860.5
   337.9
   172.9
   188.9
   502.8
   570.4
   435.3
   300.8
   393.1
   543.0
   684.7
   717.6
   651.8
   233.1
   183.4
   555.5
   609.5
   563.4
   643.8
   659.5
   360.9
   172.9
   393.0
   632.5
   621.7
   669.9
   615.1
     0.0
   172.9
   241.4
   468.1
   515.3
   420.8
   412.1
   340.2
   209.6
   619.0
   549.4
   688.6
   183.4
     0.0
   173.8
   524.9
   533.3
   533.0
   503.2
   300.8
   285.3
   129.0
   494.0
   600.1
   387.8
   211.8
   340.2
   649.7
   655.5
   710.9
   600.0
   798.0
   722.5
   899.5
  1030.0
   970.3
  1049.9
  1098.9
   315.1
   412.1
   199.9
   638.5
   665.4
   611.6
   300.8
   129.0
   211.8
   506.3
   506.3
   237.0
   482.6
   199.9
   493.8
   541.2
   446.4
   194.8
   265.1
    92.1
   512.2
   512.2
   199.1
   497.6
    81.7
   505.2
   390.2
   620.2
   497.6
   153.6
    81.7
   536.3
   536.3
   293.1
   555.5
   543.0
   743.1
   706.5
   860.4
   648.6
   652.8
   356.4
   370.4
   678.7
   736.2
   631.5
   701.6
   231.9
   248.0
   153.6
   571.8
   600.9
   542.6
   285.6
   654.7
   444.3
   746.2
   684.9
   807.5
   199.1
   577.3
   497.6
   665.7
   753.0
   620.2
   627.2
   430.3
   169.2
    91.8
   559.1
   559.1
   203.6
   136.0
   294.2
   536.4
   530.7
   572.6
   509.0
   231.9
   652.8
   248.0
   633.3
   600.9
   665.7
   286.1
   496.5
   397.0
   703.5
   660.6
   746.4
   332.9
   347.3
   598.1
   672.2
   635.3
   709.1
   499.1
   153.6
   497.6
   647.5
   536.3
   758.7
   414.4
   231.9
   499.1
   717.8
   651.7
   783.8
   479.3
   549.5
   459.7
   787.7
   804.0
   747.0
   817.9
   237.5
   430.3
   451.1
   702.2
   623.6
   780.7
   237.5
   451.1
   577.3
   770.9
   770.9
   293.1
   190.1
   233.1
   549.7
   503.2
   596.2
   482.6
   331.0
   705.8
   769.7
   700.7
   838.7
   474.9
   343.1
    98.0
   580.2
   548.4
   640.2
   576.6
   215.2
   474.9
    98.0
   614.0
   576.6
   651.5
   286.1
   203.6
   135.7
   523.0
   523.0
   549.5
   244.7
   459.7
   733.4
   662.8
   804.0
   267.2
   479.3
   459.7
   685.1
   623.2
   747.0
   416.3
   651.2
   474.9
   793.4
   758.7
   828.1
   451.1
   499.1
   577.3
   782.4
   818.0
   770.9
   756.1
   382.9
   331.0
   194.8
   632.4
   582.3
   682.4
   237.5
   287.8
   120.8
   519.0
   535.7
   502.3
   237.5
   190.0
   287.8
   598.5
   535.7
   621.6
   601.6
   809.8
   549.5
   479.3
   846.0
   887.1
   817.9
   860.4
   509.3
   416.3
   215.2
   573.8
   573.8
   267.2
   190.0
   369.3
   587.3
   537.6
   637.1
   330.2
   524.6
   206.7
   630.6
   685.4
   575.8
   284.9
   206.7
   153.3
   592.6
   619.2
   565.9
   330.2
   347.3
   524.6
   693.0
   700.4
   685.4
   693.0
   598.1
   347.3
   572.5
   788.4
   709.1
   867.8
   572.5
   347.3
   330.2
   725.4
   693.0
   757.8
   284.9
   330.2
   206.7
   648.1
   619.2
   676.9
   344.5
   284.9
   153.3
   594.8
   594.8
   563.8
   805.9
   809.8
  1017.3
  1105.2
   929.3
   344.5
   653.4
   554.4
   810.1
   893.3
   726.9
     0.0
   172.9
     0.0
   420.8
   420.8
   337.9
   393.0
   172.9
   620.1
   685.1
   621.7
   570.4
     0.0
   188.9
   172.9
   435.3
   435.3
   204.1
   188.9
     0.0
   478.7
   478.7
   555.8
   798.0
   899.5
   985.1
  1098.9
   871.3
   665.7
   499.1
   451.1
   810.4
   864.7
   756.1
   300.8
   211.8
   393.1
   579.1
   651.8
   506.3
    86.4
     0.0
     0.0
   220.3
   220.3
    94.7
    86.4
   183.4
   410.8
   466.0
   355.6
   605.1
   649.7
   340.2
   768.2
   737.3
   710.9
   875.7
   382.9
   194.8
   174.5
   558.5
   534.6
   582.3
   605.1
   412.1
   553.5
   820.1
   767.0
   805.3
   897.4
   482.6
   194.8
   331.0
   659.7
   618.7
   700.7
   665.1
   543.0
   393.1
   802.1
   886.6
   717.6
   519.4
   315.1
   443.0
   701.5
   649.9
   753.0
   519.4
   553.5
   315.1
   843.8
   843.8
   411.9
   654.7
   268.6
   731.7
   731.7
   499.1
   497.6
   577.3
   781.6
   753.0
   758.7
   818.0
   577.0
   382.9
   641.6
   792.7
   718.2
   867.1
   285.6
   268.6
   654.7
   634.9
   684.9
   584.8
   705.8
   765.7
   443.0
   904.4
   803.4
  1005.3
   798.0
   356.4
   722.5
   970.3
   970.3
   722.5
   356.4
   652.8
   838.9
   701.6
   976.3
   675.3
   451.1
   430.3
   787.8
   739.3
   780.7
   828.7
   507.7
   722.5
   652.8
   910.6
   872.2
   976.3
   883.7
   757.4
   722.5
   507.7
   939.2
  1033.4
   883.7
   868.0
   204.9
   430.3
   136.0
   582.4
   568.5
   596.2
   392.2
   234.7
   474.9
   718.9
   718.9
   584.1
   215.2
   549.5
   739.3
   613.9
   658.0
   873.4
   584.1
   809.8
   820.2
  1003.6
  1100.1
   907.1
   310.6
   675.3
   430.3
   713.3
   687.4
   739.3
   500.5
   792.9
   880.9
   960.9
   830.5
  1091.3
   439.4
   757.4
   507.7
   796.8
   725.6
   868.0
   776.8
   960.6
  1000.3
  1150.6
  1212.1
  1089.0
   500.5
   406.5
   286.1
   681.4
   781.8
   592.3
   692.5
   588.5
   397.0
   496.5
   776.8
   815.2
   746.4
   790.1
   392.2
   651.2
   588.5
   845.9
   919.7
   772.2
   853.3
   588.5
   651.2
   934.4
   949.2
   919.7
   724.8
   397.0
   588.5
   860.5
   790.1
   930.8
   605.1
   759.8
   665.1
   957.8
  1006.8
   920.5
   956.1
   425.7
   543.0
   665.1
   809.9
   757.8
   886.6
   775.3
   519.4
   765.7
   750.1
   951.3
   854.8
  1047.8
   267.2
   369.3
   479.3
   682.4
   727.7
   637.1
   253.7
   190.0
   237.5
   615.5
   601.6
   629.5
   584.1
   820.2
   341.8
   907.1
   907.1
   381.1
   337.9
   204.1
   589.5
   559.0
   620.0
   253.7
   369.3
   190.0
   595.9
   595.9
   670.0
   253.7
   347.5
   709.3
   658.0
   760.7
   483.6
   330.2
   284.9
   708.9
   740.9
   676.9
   347.5
   253.7
   237.5
   643.7
   629.5
   658.0
   616.1
   563.8
   451.8
   857.4
   811.3
   903.5
   598.1
   572.5
   465.1
   837.1
   837.9
   867.8
   815.3
   805.9
   820.2
   809.8
  1109.7
  1105.2
  1100.1
  1118.4
   670.0
   451.8
   253.7
   808.9
   808.9
  1000.4
   812.9
   899.5
  1153.0
  1126.1
  1131.6
  1194.8
   482.6
   705.8
   443.0
   784.7
   738.5
   803.4
   838.7
   752.2
   330.2
   705.7
   901.2
   770.4
  1032.0
   483.6
   752.4
   705.7
   938.4
  1022.8
   853.9
   653.4
   602.8
   561.3
   889.4
   865.4
   889.4
   904.8
   653.4
   561.3
   554.4
   885.2
   862.7
   893.3
   904.8
   381.1
   611.1
   337.9
   673.9
   727.9
   620.0
     0.0
   204.1
     0.0
   530.1
   530.1
   561.3
   819.8
   554.4
   879.6
   896.5
   862.7
   359.9
   381.1
   166.6
   588.6
   550.7
   626.6
   293.1
   233.1
   555.5
   645.2
   706.5
   659.5
   596.2
    94.7
     0.0
     0.0
   433.9
   433.9
    93.4
    94.7
   233.1
   413.7
   434.9
   392.4
   605.1
   665.1
   393.1
   920.5
   920.5
   425.7
   665.1
   688.0
   846.8
   918.2
   775.3
   812.9
   654.7
   609.5
   921.6
   946.8
   890.5
   946.0
   324.3
   439.4
   507.7
   644.4
   563.2
   725.6
   899.5
   812.9
   609.5
  1017.4
   965.9
   946.0
  1131.6
   519.4
   759.8
   553.5
   854.6
   843.8
   865.3
   895.9
   665.1
   759.8
  1031.6
  1007.4
  1006.8
  1078.2
   686.8
   439.4
   636.3
   851.3
   754.1
   948.6
   444.3
   812.9
   759.7
  1047.9
  1047.9
   776.8
   641.6
   970.8
  1026.3
   956.0
  1096.6
   324.3
   414.4
   439.4
   589.4
   669.5
   509.3
   444.3
   841.5
   641.6
   874.9
   968.2
   781.5
   601.7
   665.7
   675.3
   966.2
   991.0
   926.2
   966.2
   757.4
   899.5
   722.5
  1055.5
  1033.4
  1049.9
  1088.8
   750.1
   895.9
   759.8
  1071.2
  1059.2
  1078.2
  1083.9
   500.5
   880.9
   601.7
   906.0
   961.2
   850.9
   980.6
   965.7
  1000.5
  1226.8
  1243.5
  1241.8
  1173.3
   665.7
   451.1
   675.3
   909.8
   828.7
   991.0
   601.7
   675.3
   310.6
   926.2
   926.2
   686.8
   757.4
   439.4
  1014.2
  1014.2
  1000.3
  1000.3
   750.1
  1146.1
  1071.4
  1060.7
  1269.1
   823.1
   665.7
   948.8
  1012.7
  1014.3
  1011.2
   774.4
   341.8
   851.5
  1026.1
  1026.1
   724.8
   792.9
   397.0
  1056.9
  1056.9
   500.5
   601.7
   310.6
   850.9
   850.9
  1000.4
  1000.4
  1000.4
  1122.9
  1122.9
   923.4
   899.5
   757.4
  1144.3
  1199.9
  1088.8
   820.2
   851.5
   341.8
  1112.7
  1112.7
   853.3
   724.8
   588.5
   983.4
   949.2
   930.8
  1068.5
   895.5
   724.8
   853.3
  1113.8
  1068.5
  1159.1
   774.4
   851.5
  1000.3
  1081.4
  1142.4
  1026.1
  1086.2
   823.1
   948.8
   869.0
  1154.4
  1175.6
  1133.1
   563.8
   809.8
   479.3
   869.9
   832.8
   860.4
   929.3
   451.8
   369.3
   253.7
   649.4
   703.0
   595.9
  1000.3
   820.2
   805.9
  1122.9
  1136.2
  1118.4
  1113.3
   960.6
   970.8
  1000.4
  1247.8
  1246.0
  1252.5
  1246.3
   823.1
   869.0
   686.8
  1074.5
  1015.8
  1133.1
   465.1
   572.5
   607.0
   875.4
   912.9
   837.9
   752.2
   705.7
   948.5
  1034.2
  1036.4
  1032.0
   616.1
   893.8
   805.9
  1051.5
  1118.6
   984.4
   679.7
   607.0
   944.4
   970.5
   923.6
  1017.5
  1000.5
   948.5
  1000.5
  1170.7
  1123.0
  1218.5
  1000.3
  1000.3
   820.2
  1125.5
  1114.9
  1136.2
   752.2
   948.5
   980.2
  1151.7
  1227.5
  1075.9
  1000.5
   948.5
   705.7
  1096.1
  1021.2
  1036.4
  1218.5
   752.4
  1000.5
   705.7
  1039.6
  1022.8
  1021.2
  1074.6
   980.6
  1000.5
  1000.5
  1220.8
  1268.3
  1173.3
   752.2
   980.2
   607.0
  1020.3
   964.6
  1075.9
    88.5
   204.1
     0.0
   475.2
   420.2
   530.1
   261.2
   502.4
   561.3
   836.8
   836.8
   359.9
   561.3
   602.8
   816.6
   889.4
   743.7
   381.1
    88.5
   166.6
   531.1
   550.7
   511.5
     0.0
    88.5
     0.0
   392.9
   392.9
   269.1
    88.5
     0.0
   415.9
   438.9
   392.9
  1000.3
   880.9
   792.9
  1098.4
  1082.5
  1091.3
  1122.8
  1000.3
   765.7
   705.8
  1031.8
  1077.9
  1005.3
  1024.8
   208.8
   190.1
   293.1
   543.1
   505.0
   581.3
    63.4
    93.4
   141.8
   437.1
   441.1
   433.1
    93.4
     0.0
     0.0
   476.2
   476.2
   282.6
   208.8
   293.1
   599.6
   617.8
   581.3
   208.8
   371.5
   141.8
   541.3
   513.6
   569.1
   669.2
   688.0
   665.1
   953.2
   973.5
   918.2
   940.0
   841.5
   970.8
   641.6
  1042.3
   968.2
  1116.4
  1000.3
   765.7
  1000.3
  1082.4
  1086.9
  1077.9
  1000.4
  1000.4
   812.9
  1125.0
  1123.9
  1126.1
  1000.4
  1000.4
   970.8
  1252.3
  1252.2
  1252.5
   960.6
  1000.3
  1000.3
  1167.5
  1212.1
  1122.8
   841.5
  1000.4
   970.8
  1176.2
  1116.4
  1252.2
  1139.1
  1000.3
   895.9
   750.1
  1126.3
  1195.7
  1083.9
  1071.4
   841.5
  1000.4
  1000.4
  1195.5
  1142.4
  1269.2
  1139.1
   823.1
   499.1
   665.7
   920.5
   892.0
   864.7
  1014.3
  1000.4
  1000.4
   899.5
  1158.9
  1122.9
  1194.8
   686.8
   923.4
   757.4
  1017.4
  1014.2
  1020.6
   923.4
  1000.4
   899.5
  1147.4
  1199.9
  1122.9
  1122.9
  1000.3
   895.5
   853.3
  1170.1
  1145.7
  1159.1
  1195.2
   922.7
   979.1
   601.7
  1194.1
  1194.1
   979.1
   665.7
   601.7
   983.9
  1001.6
   966.2
  1000.3
   665.7
   979.1
  1104.9
  1013.3
  1001.6
  1258.9
  1000.4
  1000.4
  1000.4
  1221.1
  1189.0
  1269.2
  1189.0
  1000.3
  1000.3
  1000.3
  1124.0
  1122.8
  1122.8
  1126.4
   834.0
   561.3
   502.4
   875.0
   935.5
   836.8
   864.4
  1000.3
   792.9
   724.8
  1066.1
  1056.9
  1082.5
  1067.5
   895.5
  1000.3
   724.8
  1095.2
  1067.5
  1122.8
   880.9
   922.7
   601.7
  1068.8
   961.2
  1176.4
  1000.3
  1000.3
   948.8
  1242.2
  1226.9
  1229.7
  1269.1
  1000.3
  1000.3
   851.5
  1132.6
  1122.8
  1142.4
   998.9
   880.9
  1000.3
  1138.9
  1176.1
  1122.8
  1122.8
  1000.3
   979.1
   922.7
  1144.9
  1122.8
  1194.1
  1122.8
   774.4
  1000.3