# vtk DataFile Version 3.0
Landscape
ASCII
DATASET UNSTRUCTURED_GRID
POINTS      26910 float
           0.000           0.000           0.000
        1600.000           0.000           0.000
           0.000        1600.000           0.000
         533.333         533.333           0.000
        1820.535        1836.129         185.277
        1600.000           0.000           0.000
        3200.000           0.000           0.000
        2206.845         612.043         369.187
        1766.413        1385.524         369.187
        4436.497        1560.645         234.923
        3200.000           0.000           0.000
        4800.000           0.000           0.000
        4145.499         520.215         358.724
        4503.730        1271.991         358.724
        6234.052        1737.813          60.053
        4800.000           0.000           0.000
        6400.000           0.000           0.000
        5811.350         579.271         367.848
        5685.115        1072.601         367.848
        8231.839        1585.959         207.340
        6400.000           0.000           0.000
        8000.000           0.000           0.000
        8012.931        1244.351         382.997
        7844.930        1250.984         413.679
        8180.932        1237.719         352.315
        8231.839        1585.959         207.340
        8000.000           0.000           0.000
        9600.000           0.000           0.000
        8610.613         528.653         352.315
        8180.932        1237.719         352.315
       10114.256        2299.635         182.347
       10506.534         877.165          60.200
       11192.297        1979.624         144.059
       10604.362        1718.808         388.945
       10605.422        2153.835         388.945
       11192.297        1979.624         144.059
       11200.000           0.000           0.000
       12800.000           0.000           0.000
       11404.305        1438.239         390.506
       11194.489        1416.264         370.210
       11614.122        1460.215         410.802
       14535.388        1860.001          62.132
       12800.000           0.000           0.000
       14400.001           0.000           0.000
       14180.145        1155.508         363.590
       13876.019        1153.284         385.533
       14484.271        1157.732         341.647
       14535.388        1860.001          62.132
       14400.001           0.000           0.000
       16000.000           0.000           0.000
       14978.463         620.000         341.647
       14484.271        1157.732         341.647
       17224.315        1919.917         419.117
       16000.000           0.000           0.000
       17600.000           0.000           0.000
       16941.438         639.972         436.841
       17211.262        1899.447         436.841
       18961.790        1751.968          28.667
       17600.000           0.000           0.000
       19200.000           0.000           0.000
       18587.263         583.989         352.736
       18370.095         990.741         352.736
        4436.497        1560.645         234.923
        1820.535        1836.129         185.277
        3200.000           0.000           0.000
        3152.344        1132.258         566.344
        3366.005        1673.377         566.344
       23731.335        1792.943         238.915
       22400.000           0.000           0.000
       24000.001           0.000           0.000
       23377.112         597.648         376.482
       23781.097        1460.858         376.482
       25712.931        1511.197          50.163
       24000.001           0.000           0.000
       25599.999           0.000           0.000
       25104.310         503.732         365.868
       25028.727         907.572         365.868
       25712.931        1511.197          50.163
       27200.000           0.000           0.000
       27507.238        1603.221         225.880
       26806.723        1038.139         377.622
       26308.111         906.361         355.745
       27446.317        1285.322         359.896
       27033.705        1578.935         417.664
       27507.238        1603.221         225.880
       27200.000           0.000           0.000
       28800.001           0.000           0.000
       27835.746         534.407         359.896
       27446.317        1285.322         359.896
       30065.602        1613.570         323.918
       28800.001           0.000           0.000
       30400.000           0.000           0.000
       29755.201         537.857         410.343
       29944.740        1459.477         410.343
       31040.554         771.051         264.131
       30065.602        1613.570         323.918
       30400.000           0.000           0.000
       30733.825         977.095         427.410
       30983.472         702.339         307.269
       30484.178        1251.851         547.551
       31415.600        1997.898         135.707
       33371.579        1994.991          35.298
       33224.678        2857.386          48.650
       32067.835        2148.726         408.627
       32083.048        1996.906         401.885
       32052.623        2300.545         415.370
       34548.701        1811.800         216.105
       34459.486        2336.808         166.831
       33371.579        1994.991          35.298
       34126.589        2047.867         304.219
       34514.923        2010.578         304.219
        6234.052        1737.813          60.053
        6043.012        3262.445         122.847
        5160.666        3300.186         225.869
        5812.577        2766.815         354.371
        5466.636        3287.099         354.371
       37099.539        1414.823         291.071
       35200.000           0.000           0.000
       36800.001           0.000           0.000
       36366.513         471.608         426.237
       36841.485        1222.618         426.237
       37099.539        1414.823         291.071
       36800.001           0.000           0.000
       38399.999           0.000           0.000
       37433.180         471.608         397.364
       37266.394        1233.296         397.364
       39191.316         917.871          40.823
       38399.999           0.000           0.000
       40000.000           0.000           0.000
       39197.105         305.957         257.965
       38838.764         508.936         257.965
       40125.312        1643.514          35.918
       41599.998           0.000           0.000
       41840.942        1855.796         417.884
       41274.707        1398.417         399.423
       40750.915         946.290         357.102
       41798.498        1850.545         441.743
       41840.942        1855.796         417.884
       41599.998           0.000           0.000
       43200.002           0.000           0.000
       42213.647         618.599         442.368
       41867.166        1819.987         442.368
       43418.644        1867.336          49.539
       43200.002           0.000           0.000
       44800.000           0.000           0.000
       43806.215         622.445         339.338
       43330.966        1118.512         339.338
       34548.701        1811.800         216.105
       37099.539        1414.823         291.071
       36841.038        3085.085         151.574
       36163.093        2103.903         557.401
       36173.433        1558.950         605.829
       37021.580        1918.545         498.391
       35417.132        2294.173         540.724
       48116.282        1628.322         152.649
       49600.000           0.000           0.000
       49975.028        1831.460         234.271
       49230.437        1153.260         431.361
       48520.764        1184.419         393.007
       49902.646        1477.979         383.963
       49307.970        1758.559         503.054
       10114.256        2299.635         182.347
        8231.839        1585.959         207.340
       10506.534         877.165          60.200
        8964.440        1651.483         491.447
        9082.543        1908.484         518.596
        8846.337        1394.482         464.299
       52954.322        1538.422         133.618
       52800.002           0.000           0.000
       54400.001           0.000           0.000
       53384.775         512.807         331.110
       52905.543        1052.147         331.110
       55816.240        1531.934         176.492
       54400.001           0.000           0.000
       55999.999           0.000           0.000
       55660.896        1136.182         365.825
       55457.196        1143.559         389.386
       55864.596        1128.806         342.264
       55816.240        1531.934         176.492
       55999.999           0.000           0.000
       57600.002           0.000           0.000
       56472.081         510.645         342.264
       55864.596        1128.806         342.264
       38196.713        1837.356          86.069
       37099.539        1414.823         291.071
       38399.999           0.000           0.000
       37898.751        1084.060         375.162
       38268.761        1186.167         347.376
       37266.394        1233.296         397.364
       37340.521        1507.628         401.942
       59004.449        1641.677          34.550
       57600.002           0.000           0.000
       59200.001           0.000           0.000
       58601.484         547.226         314.992
       59088.136         939.118         314.992
       25712.931        1511.197          50.163
       25600.029        2863.835         100.185
       23731.335        1792.943         238.915
       24242.404        1911.870         460.400
       24267.065        2099.954         484.615
       24217.743        1723.785         436.185
       63784.513        1656.536         243.427
[...]
POINT_DATA      26910
SCALARS height float 1
LOOKUP_TABLE default
     0.0
     0.0
     0.0
     0.0
   185.3
     0.0
     0.0
   369.2
   369.2
   234.9
     0.0
     0.0
   358.7
   358.7
    60.1
     0.0
     0.0
   367.8
   367.8
   207.3
     0.0
     0.0
   383.0
   413.7
   352.3
   207.3
     0.0
     0.0
   352.3
   352.3
   182.3
    60.2
   144.1
   388.9
   388.9
   144.1
     0.0
     0.0
   390.5
   370.2
   410.8
    62.1
     0.0
     0.0
   363.6
   385.5
   341.6
    62.1
     0.0
     0.0
   341.6
   341.6
   419.1
     0.0
     0.0
   436.8
   436.8
    28.7
     0.0
     0.0
   352.7
   352.7
   234.9
   185.3
     0.0
   566.3
   566.3
   238.9
     0.0
     0.0
   376.5
   376.5
    50.2
     0.0
     0.0
   365.9
   365.9
    50.2
     0.0
   225.9
   377.6
   355.7
   359.9
   417.7
   225.9
     0.0
     0.0
   359.9
   359.9
   323.9
     0.0
     0.0
   410.3
   410.3
   264.1
   323.9
     0.0
   427.4
   307.3
   547.6
   135.7
    35.3
    48.7
   408.6
   401.9
   415.4
   216.1
   166.8
    35.3
   304.2
   304.2
    60.1
   122.8
   225.9
   354.4
   354.4
   291.1
     0.0
     0.0
   426.2
   426.2
   291.1
     0.0
     0.0
   397.4
   397.4
    40.8
     0.0
     0.0
   258.0
   258.0
    35.9
     0.0
   417.9
   399.4
   357.1
   441.7
   417.9
     0.0
     0.0
   442.4
   442.4
    49.5
     0.0
     0.0
   339.3
   339.3
   216.1
   291.1
   151.6
   557.4
   605.8
   498.4
   540.7
   152.6
     0.0
   234.3
   431.4
   393.0
   384.0
   503.1
   182.3
   207.3
    60.2
   491.4
   518.6
   464.3
   133.6
     0.0
     0.0
   331.1
   331.1
   176.5
     0.0
     0.0
   365.8
   389.4
   342.3
   176.5
     0.0
     0.0
   342.3
   342.3
    86.1
   291.1
     0.0
   375.2
   347.4
   397.4
   401.9
    34.5
     0.0
     0.0
   315.0
   315.0
    50.2
   100.2
   238.9
   460.4
   484.6
   436.2
   243.4
     0.0
     0.0
   392.0
   411.1
   372.9
    35.2
     0.0
     0.0
   238.7
   238.7
   255.4
    72.6
   143.5
   486.7
   486.7
    62.1
   144.1
     0.0
   438.0
   385.5
   410.8
   494.9
    87.9
     0.0
     0.0
   338.5
   310.3
   366.7
   160.0
     0.0
     0.0
   373.5
   398.4
   348.7
    78.1
   360.3
   160.0
   385.5
   385.5
   323.6
    34.5
     0.0
   359.7
   315.0
   404.4
   161.4
   363.2
   323.6
   605.1
   680.5
   529.7
    28.7
   318.0
    58.5
   464.7
   430.3
   499.1
   123.1
   277.0
   318.0
   519.6
   583.0
   456.2
   419.1
    62.1
     0.0
   475.9
   436.8
   515.0
    60.2
   207.3
     0.0
   464.3
   464.3
   185.3
     0.0
     0.0
   436.3
   369.2
   503.3
   318.0
     0.0
     0.0
   412.8
   434.1
   391.5
   147.7
     0.0
   123.1
   296.4
   296.4
    27.2
     0.0
     0.0
   346.4
   346.4
    27.2
     0.0
   133.6
   358.8
   354.9
   331.1
   385.9
    60.1
   234.9
     0.0
   385.9
   367.8
   358.7
   428.0
    27.2
   133.6
    56.2
   412.5
   439.2
   385.9
    87.9
     0.0
     0.0
   310.3
   310.3
    89.0
   211.0
   144.1
   528.3
   516.2
   540.5
   176.5
   133.6
     0.0
   459.3
   389.4
   529.2
   323.9
   225.9
     0.0
   514.3
   410.3
   618.3
   373.3
   211.0
    89.0
   553.9
   540.5
   567.2
   323.6
     0.0
     0.0
   378.9
   378.9
   161.4
     0.0
     0.0
   401.5
   401.5
   164.7
   483.0
   100.2
   501.8
   501.8
   102.3
   318.0
   277.0
   544.8
   552.0
   583.0
   517.9
   217.2
    89.0
   419.1
   540.0
   539.8
   568.7
   521.7
    28.7
    58.5
   217.2
   433.8
   433.8
   135.7
    15.9
    35.3
   401.9
   401.9
    73.0
   147.7
    77.6
   460.5
   478.1
   442.8
   152.6
   412.1
   147.7
   515.6
   539.8
   491.5
   151.6
   291.1
    86.1
   450.2
   401.9
   498.4
    35.9
    40.8
     0.0
   275.6
   275.6
    35.9
    86.1
    40.8
   329.9
   384.3
   275.6
   257.0
   326.7
   225.9
   623.4
   547.0
   617.6
   662.9
    49.5
   417.9
     0.0
   389.1
   339.3
   442.4
   441.5
   152.6
    73.0
     0.0
   402.7
   326.5
   404.1
   469.4
   258.4
   100.2
   326.7
   504.9
   460.9
   548.9
   143.5
     0.0
     0.0
   382.0
   358.9
   405.0
    98.6
    43.3
   327.9
   417.6
   417.6
   243.1
   133.6
   176.5
   557.9
   529.2
   586.6
    73.0
    77.6
    49.5
   423.4
   404.0
   442.8
    34.5
   176.5
     0.0
   489.8
   489.8
    87.9
   327.9
     0.0
   446.1
   411.0
   481.2
   160.0
    87.9
     0.0
   434.7
   398.4
   366.7
   502.4
   161.4
   323.6
     0.0
   447.9
   401.5
   378.9
   529.7
   152.6
   147.7
    73.0
   480.4
   491.5
   469.4
   216.2
   412.1
   405.6
   587.3
   516.5
   658.2
    56.2
   412.1
   234.3
   503.8
   627.9
   412.0
   531.4
   255.4
    35.2
    72.6
   444.7
   500.0
   375.4
   486.7
    43.3
   143.5
     0.0
   425.2
   405.0
   445.4
   193.0
   207.3
   322.4
   582.0
   567.1
   593.6
   590.1
   251.4
     0.0
     0.0
   412.2
   441.9
   382.5
   251.4
     0.0
     0.0
   496.5
   382.5
   610.5
   145.6
    87.9
   160.0
   523.2
   502.4
   543.9
   360.3
   251.4
   175.0
   592.4
   649.2
   523.1
   627.6
   145.6
   156.9
   327.9
   544.3
   544.8
   536.8
   548.8
     0.0
   251.4
     0.0
   535.1
   610.5
   459.8
    60.1
   225.9
   234.9
   487.0
   546.1
   428.0
   182.3
   211.0
   322.4
   482.5
   550.0
   414.9
   511.6
   185.3
   234.9
   596.0
   566.3
   625.7
     0.0
     0.0
   185.3
   525.8
   503.3
   548.3
   183.7
   185.3
   511.6
   572.2
   544.7
   599.8
   225.9
   511.6
   234.9
   586.3
   546.1
   625.7
   611.3
   422.1
   511.6
   225.9
   694.1
   776.9
   611.3
   309.6
   483.0
   409.0
   670.6
   714.1
   623.1
   693.0
    50.2
   326.7
   100.2
   460.9
   460.9
   422.1
   183.7
   511.6
   679.2
   776.9
   599.8
   643.7
   183.7
     0.0
     0.0
   469.5
   506.5
   432.5
   243.1
    56.2
   133.6
   441.0
   439.2
   442.8
    89.0
   144.1
    62.1
   505.6
   494.9
   516.2
    89.0
    62.1
   419.1
   527.4
   515.0
   539.8
   147.7
   123.1
   318.0
   376.3
   456.2
   296.4
    50.2
   238.9
     0.0
   392.1
   365.9
   376.5
   436.2
   226.5
   488.6
   155.9
   464.1
   511.4
   416.8
    28.7
   217.2
   419.1
   484.9
   435.0
   568.7
   433.8
   115.0
   217.2
    58.5
   442.8
   442.8
   257.0
   225.9
   323.9
   605.0
   618.3
   617.6
   545.9
   135.7
   323.9
   264.1
   486.9
   468.7
   547.6
   439.8
   200.4
   166.8
   151.6
   519.5
   514.1
   524.8
    77.6
   417.9
    49.5
   470.9
   500.3
   441.5
   135.7
   264.1
    15.9
   414.2
   388.6
   439.8
   135.7
    80.3
   257.0
   485.4
   496.6
   474.1
    73.0
    49.5
     0.0
   404.0
   404.0
   108.9
   417.9
    77.6
   513.7
   527.1
   500.3
   166.8
    48.7
    35.3
   358.4
   358.4
   164.7
   258.4
   312.0
   593.4
   548.9
   638.0
   102.3
   115.0
    58.5
   467.0
   467.0
   470.5
    86.1
    79.7
   503.8
   565.5
   450.6
   537.3
   615.7
   326.7
   257.0
   679.7
   711.5
   662.9
   671.0
   428.7
   373.3
   353.0
   729.6
   762.8
   690.3
   728.2
    27.2
    56.2
   234.3
   412.0
   412.0
    35.2
    90.6
   243.4
   405.8
   405.8
   195.2
   176.5
    34.5
   516.8
   569.7
   489.8
   470.8
    61.0
    34.5
   323.6
   437.8
   404.4
   471.2
   524.5
    77.6
   147.7
   535.4
   478.1
   592.7
    98.6
   143.5
    43.3
   447.9
   450.4
   445.4
    90.6
   363.2
   243.4
   512.9
   627.7
   405.8
   497.7
   322.8
   405.6
   349.5
   679.7
   655.7
   703.1
   675.1
   100.0
    56.2
   243.1
   488.3
   442.8
   533.8
   112.5
   152.9
   470.5
   558.1
   578.4
   537.8
   465.2
   243.1
   176.5
   631.3
   586.6
   676.0
   195.2
    34.5
    61.0
   470.8
   470.8
   363.2
    61.0
   323.6
   566.1
   680.5
   471.2
   522.2
   511.6
   100.0
   243.1
   555.4
   533.8
   576.9
   145.6
   327.9
    87.9
   509.0
   481.2
   536.8
   255.4
   362.5
    90.6
   511.5
   516.3
   506.7
   255.4
    90.6
    35.2
   503.3
   506.7
   500.0
    94.2
    61.0
   363.2
   551.3
   522.2
   580.4
   309.6
   277.0
   483.0
   660.8
   642.7
   649.6
   693.0
   323.5
   160.0
   351.3
   648.2
   613.7
   682.7
    98.6
   537.5
   143.5
   498.6
   450.4
   546.8
   155.9
   373.3
    89.0
   574.0
   567.2
   580.8
   360.3
   351.3
   160.0
   652.9
   652.9
     0.0
   251.4
     0.0
   459.8
   459.8
   323.5
   613.4
   659.7
   792.8
   721.1
   864.6
   335.6
   175.0
   189.8
   507.9
   579.1
   436.8
   277.1
   193.0
   308.3
   550.3
   615.1
   485.6
   236.6
   183.7
   422.1
   617.7
   571.9
   643.7
   660.9
   360.3
   175.0
   351.3
   634.9
   629.4
   652.9
   627.6
     0.0
   175.0
   251.4
   472.9
   523.1
   422.7
   373.3
   322.4
   211.0
   610.3
   670.6
   550.0
   183.7
     0.0
   185.3
   535.4
   544.7
   548.3
   506.5
   277.1
   225.9
   122.8
   457.5
   560.6
   354.4
   277.1
   308.3
   485.6
   629.6
   644.2
   615.1
   166.8
   470.9
    48.7
   479.2
   358.4
   600.1
   470.9
    80.3
    48.7
   480.4
   480.4
   102.3
    58.5
   318.0
   525.6
   552.0
   499.1
   650.1
   520.5
   505.4
   839.9
   791.3
   846.7
   856.0
   277.1
   122.8
   193.0
   485.6
   485.6
   354.1
   422.1
   485.6
   742.6
   745.4
   779.1
   693.4
   226.5
   115.0
   488.6
   555.7
   544.4
   567.0
   615.7
   258.4
   326.7
   630.2
   711.5
   548.9
   276.5
    80.3
   105.1
   490.7
   490.7
   134.1
   578.3
   167.5
   591.5
   591.5
   166.8
   537.0
   470.9
   639.4
   718.0
   600.1
   605.9
   470.5
   151.6
    86.1
   565.5
   565.5
   108.9
    79.7
   417.9
   484.3
   511.9
   527.1
   442.1
   276.5
   105.1
   265.4
   560.8
   560.8
   140.0
   524.5
   171.4
   571.5
   560.5
   582.5
   342.6
   362.5
   611.6
   681.6
   646.8
   731.9
   677.5
   269.3
    80.3
   470.9
   535.6
   480.4
   590.7
   294.7
   105.1
   269.3
   581.2
   532.6
   629.7
   371.9
   511.6
   465.2
   748.0
   811.1
   679.8
   741.3
   200.4
   470.5
   303.1
   663.9
   609.4
   718.5
   200.4
   303.1
   537.0
   651.6
   651.6
   354.1
   230.2
   236.6
   577.3
   529.7
   624.8
   405.6
   412.1
    56.2
   574.0
   531.4
   658.2
   544.4
   100.0
   405.6
    56.2
   555.0
   544.4
   565.5
   140.0
   108.9
    77.6
   448.0
   448.0
   511.6
   243.1
   465.2
   743.5
   676.0
   811.1
   195.2
   371.9
   465.2
   628.2
   576.5
   679.8
   209.3
   349.5
   405.6
   647.1
   591.1
   703.1
   303.1
   269.3
   537.0
   612.3
   636.0
   651.6
   571.6
   345.7
   166.5
   115.0
   539.8
   520.5
   559.1
   156.2
   363.2
    90.6
   497.2
   496.6
   497.7
   156.2
    94.2
   363.2
   535.6
   496.6
   580.4
   526.5
   687.7
   511.6
   371.9
   788.0
   859.5
   741.3
   791.5
   209.3
   123.3
   513.4
   505.3
   459.5
   551.0
   195.2
    94.2
   193.7
   492.7
   450.4
   535.0
   222.1
   537.5
   156.9
   579.5
   612.5
   546.5
   246.1
   156.9
   145.6
   567.8
   586.9
   548.8
   330.5
   537.5
   222.1
   674.4
   736.3
   612.5
   611.6
   362.5
   581.7
   803.8
   731.9
   875.6
   330.5
   362.5
   537.5
   710.9
   722.0
   736.3
   685.7
   246.1
   222.1
   156.9
   604.4
   586.9
   622.0
   323.5
   246.1
   145.6
   562.7
   562.7
   496.0
   295.5
   474.0
   770.7
   770.7
   323.5
   659.7
   459.4
   775.7
   839.1
   712.3
     0.0
   175.0
     0.0
   422.7
   422.7
   335.6
   351.3
   175.0
   624.5
   674.2
   629.4
   579.1
     0.0
   189.8
   175.0
   436.8
   436.8
   236.5
   189.8
     0.0
   490.3
   490.3
   312.0
   650.1
   505.4
   856.0
   856.0
   401.6
   269.3
   303.1
   620.7
   669.7
   571.6
   488.6
   166.5
   423.4
   680.5
   580.9
   780.2
    86.7
     0.0
     0.0
   220.4
   220.4
    95.4
    86.7
   183.7
   412.6
   469.1
   356.1
   428.7
   322.4
   373.3
   720.3
   717.5
   670.6
   762.8
   345.7
   115.0
   102.3
   493.8
   467.0
   520.5
   213.7
   373.3
   155.9
   582.7
   584.6
   580.8
   488.6
   115.0
   166.5
   573.9
   567.0
   580.9
   494.3
   485.6
   308.3
   732.3
   820.5
   644.2
   292.7
   213.7
   314.4
   569.0
   547.1
   590.8
   292.7
   353.0
   213.7
   636.2
   636.2
   309.6
   578.3
   190.6
   622.4
   642.2
   602.6
   269.3
   470.9
   537.0
   642.7
   718.0
   590.7
   636.0
   215.6
   345.7
   545.1
   601.6
   546.8
   681.2
   561.0
   134.1
   190.6
   578.3
   536.4
   602.6
   470.1
   423.4
   539.0
   314.4
   710.8
   674.4
   747.3
   650.1
   258.4
   520.5
   727.2
   663.2
   791.3
   520.5
   258.4
   615.7
   880.4
   880.4
   584.0
   303.1
   470.5
   728.5
   753.3
   718.5
   720.7
   276.5
   520.5
   615.7
   776.1
   631.1
   880.4
   699.4
   397.4
   520.5
   265.4
   688.3
   754.9
   690.8
   640.1
   112.5
   470.5
    79.7
   537.5
   537.3
   537.8
   322.8
   216.2
   405.6
   655.7
   655.7
   322.3
   100.0
   511.6
   569.4
   488.4
   576.9
   701.6
   322.3
   687.7
   367.3
   684.9
   742.4
   627.3
   152.9
   584.0
   470.5
   665.9
   578.4
   753.3
   306.0
   542.0
   605.6
   744.4
   641.4
   871.8
   699.6
   140.9
   397.4
   265.4
   536.9
   433.6
   640.1
   279.8
   440.6
   743.9
   771.6
   771.6
   306.0
   324.4
   140.0
   595.8
   674.1
   464.8
   566.3
   442.3
   171.4
   524.5
   663.7
   771.2
   582.5
   614.0
   322.8
   349.5
   442.3
   695.2
   715.3
   675.1
   594.8
   442.3
   349.5
   777.0
   838.7
   715.3
   327.4
   171.4
   442.3
   660.0
   614.0
   706.1
   428.7
   527.5
   494.3
   817.7
   862.0
   759.7
   816.5
   532.6
   225.1
   176.7
   588.3
   606.7
   569.8
   292.7
   539.0
   384.6
   686.2
   649.2
   723.1
   195.2
   193.7
   371.9
   558.4
   581.9
   535.0
   112.7
    94.2
   156.2
   529.5
   526.5
   532.5
   322.3
   367.3
   123.3
   627.3
   627.3
   460.3
   335.6
   236.5
   614.8
   588.4
   641.2
   112.7
   193.7
    94.2
   445.5
   445.5
   486.7
   112.7
   206.6
   589.9
   530.8
   648.9
   364.3
   222.1
   246.1
   639.6
   657.2
   622.0
   206.6
   112.7
   156.2
   531.6
   532.5
   530.8
   175.7
   295.5
   149.8
   544.9
   528.9
   560.9
   611.6
   581.7
   251.7
   747.4
   688.9
   875.6
   661.2
   496.0
   624.7
   687.7
   903.1
   969.4
   821.3
   875.7
   486.7
   149.8
   112.7
   542.5
   542.5
   764.0
   377.4
   505.4
   816.5
   782.3
   785.9
   875.1
   488.6
   423.4
   314.4
   715.3
   639.9
   674.4
   780.2
   330.5
   512.2
   729.1
   754.1
   664.6
   843.6
   364.3
   526.6
   512.2
   799.5
   839.9
   759.1
   659.7
   540.4
   429.2
   809.7
   829.1
   792.6
   820.7
   659.7
   429.2
   459.4
   799.2
   757.1
   839.1
   820.7
   460.3
   613.4
   335.6
   721.6
   802.0
   641.2
     0.0
   236.5
     0.0
   564.0
   564.0
   429.2
   734.8
   459.4
   794.1
   831.1
   757.1
   304.7
   460.3
   155.9
   588.7
   562.7
   614.7
   354.1
   236.6
   422.1
   681.2
   745.4
   660.9
   624.8
    95.4
     0.0
     0.0
   436.8
   436.8
   111.3
    95.4
   236.6
   426.5
   450.7
   402.3
   428.7
   494.3
   308.3
   759.7
   759.7
   532.6
   485.6
   494.3
   817.9
   812.8
   820.5
   819.7
   377.4
   578.3
   489.1
   733.6
   690.5
   778.2
   741.0
   122.8
   140.9
   265.4
   381.5
   329.5
   433.6
   505.4
   377.4
   489.1
   794.6
   844.0
   741.0
   785.9
   292.7
   527.5
   353.0
   651.5
   636.2
   666.8
   486.3
   494.3
   527.5
   846.4
   834.3
   862.0
   840.3
   172.4
   140.9
   425.2
   540.3
   540.3
   167.5
   377.4
   227.7
   544.8
   544.8
   279.8
   545.1
   513.8
   736.7
   641.4
   841.6
   686.1
   122.8
   294.7
   140.9
   386.1
   436.1
   336.0
   167.5
   246.1
   545.1
   631.0
   631.0
   207.4
   401.6
   584.0
   711.4
   816.2
   596.9
   651.7
   397.4
   505.4
   520.5
   803.3
   754.9
   846.7
   801.1
   384.6
   486.3
   527.5
   803.1
   769.8
   840.3
   797.8
   306.0
   605.6
   207.4
   644.2
   588.8
   699.6
   615.7
   888.8
   863.8
  1065.8
   974.9
  1156.8
   401.6
   303.1
   584.0
   768.5
   720.7
   816.2
   207.4
   584.0
   152.9
   596.9
   596.9
   172.4
   397.4
   140.9
   566.5
   566.5
   554.5
   827.2
   384.6
   899.5
   899.5
   596.5
   519.2
   269.3
   765.2
   714.6
   710.5
   862.3
   168.9
   123.3
   422.1
   538.5
   538.5
   211.2
   327.4
   258.1
   564.5
   537.1
   591.8
   306.0
   207.4
   152.9
   588.8
   588.8
   645.1
   764.0
   830.0
  1006.9
   970.2
  1058.9
  1008.8
   467.7
   505.4
   397.4
   786.9
   843.5
   801.1
   704.0
   367.3
   422.1
   123.3
   605.3
   538.5
   672.1
   707.5
   442.3
   594.8
   876.8
   870.4
   838.7
   941.0
   707.5
   327.4
   442.3
   788.3
   870.4
   706.1
   168.9
   422.1
   232.2
   578.2
   578.2
   460.5
   519.2
   841.3
   836.1
   861.5
   810.8
   496.0
   371.9
   295.5
   707.9
   742.7
   673.0
   149.8
   193.7
   112.7
   461.4
   477.3
   445.5
   624.7
   848.4
   584.8
   877.7
   930.3
   797.8
   951.3
   454.4
   513.8
   767.8
   814.6
   782.3
   866.0
   805.0
   519.2
   207.5
   172.4
   637.2
   637.2
   251.7
   581.7
   294.6
   703.5
   718.1
   688.9
   330.5
   735.4
   763.6
   988.8
   988.8
   175.7
   321.1
   474.0
   662.7
   714.8
   610.5
   414.7
   294.6
   625.1
   719.8
   636.0
   803.6
   978.0
   735.4
   729.1
  1033.9
  1084.8
   984.9
  1061.5
   624.7
   584.8
   367.3
   757.4
   717.0
   797.8
   385.6
   735.4
   696.1
   890.5
   779.7
  1001.2
   330.5
   729.1
   735.4
   984.9
   984.9
   526.6
   729.1
   512.2
   862.2
   839.9
   843.6
   904.1
   615.7
   863.8
   729.1
  1021.7
  1075.1
   968.3
   385.6
   763.6
   735.4
   862.1
   779.7
   988.8
   780.7
    85.7
   236.5
     0.0
   496.2
   428.4
   564.0
   233.1
   410.1
   429.2
   741.3
   741.3
   304.7
   429.2
   540.4
   745.0
   792.6
   697.3
   460.3
    85.7
   155.9
   544.8
   562.7
   527.0
     0.0
    85.7
     0.0
   390.9
   390.9
   271.8
    85.7
     0.0
   415.2
   439.5
   390.9
   678.0
   605.6
   542.0
   886.4
   865.9
   871.8
   919.1
   743.9
   539.0
   423.4
   803.8
   885.5
   747.3
   790.2
   140.1
   230.2
   354.1
   512.2
   479.8
   544.5
    50.0
   111.3
   101.6
   433.9
   432.6
   435.3
   111.3
     0.0
     0.0
   495.5
   495.5
   176.7
   140.1
   354.1
   556.6
   568.7
   544.5
   140.1
   407.7
   101.6
   508.9
   492.1
   525.6
   474.3
   494.3
   486.3
   810.4
   804.6
   834.3
   775.6
   246.1
   513.8
   545.1
   736.3
   631.0
   841.6
   554.5
   539.0
   743.9
   891.0
   875.8
   885.5
   916.0
   764.0
   316.9
   377.4
   726.2
   670.2
   782.3
   357.7
   767.8
   513.8
   780.9
   695.8
   866.0
   440.6
   738.9
   743.9
   900.2
  1028.9
   771.6
   246.1
   357.7
   513.8
   695.8
   695.8
   827.2
   486.3
   384.6
   854.5
   911.2
   797.8
   246.1
   316.9
   357.7
   621.7
   592.6
   650.9
   596.5
   269.3
   401.6
   690.1
   669.7
   710.5
   830.0
   764.0
   505.4
   967.0
   875.1
  1058.9
   172.4
   467.7
   397.4
   635.3
   566.5
   704.0
   467.7
   830.0
   505.4
   864.1
   843.5
   884.7
   707.5
   594.8
   870.5
   972.1
   938.4
   941.0
  1028.9
   268.5
   613.4
   207.4
   636.8
   636.8
   613.4
   401.6
   207.4
   694.2
   774.4
   651.7
   636.8
   596.5
   693.5
   841.3
   974.0
  1037.2
   917.0
   938.2
   482.5
   645.1
   722.0
   924.0
   845.8
  1002.2
   554.5
   738.9
   954.2
  1012.4
   920.7
  1104.0
   483.1
   429.2
   410.1
   779.5
   816.3
   741.3
   764.4
   258.1
   678.0
   542.0
   738.4
   610.9
   865.9
   325.7
   457.8
   603.9
   679.5
   664.5
   694.4
   605.6
   268.5
   207.4
   669.8
   669.8
   693.5
   889.3
   841.3
  1069.2
  1137.9
  1037.2
  1022.0
   584.8
   232.2
   422.1
   678.5
   778.8
   578.2
   621.7
   605.6
   678.0
   942.6
   924.9
   919.1
   973.4
   434.8
   613.4
   268.5
   757.0
   757.0
   410.1
   168.9
   232.2
   568.4
   568.4
   584.8
   422.1
   367.3
   720.3
   672.1
   778.8
   717.0
   707.5
   765.4
   603.9
   949.7
  1030.2
   907.5
   869.3
   460.5
   841.3
   889.3
  1137.9
  1137.9
   551.0
   486.3
   827.2
   883.5
   857.3
   911.2