# vtk DataFile Version 3.0
Landscape
ASCII
DATASET UNSTRUCTURED_GRID
POINTS      23620 float
           0.000           0.000           0.000
        1600.000           0.000           0.000
           0.000        1600.000           0.000
         533.333         533.333           0.000
        1820.535        1836.129         171.772
        1600.000           0.000           0.000
        3200.000           0.000           0.000
        2206.845         612.043         366.047
        1763.227        1358.998         366.047
        4436.497        1560.645         224.779
        3200.000           0.000           0.000
        4800.000           0.000           0.000
        4145.499         520.215         356.152
        4508.399        1251.944         356.152
        6234.052        1737.813          65.176
        4800.000           0.000           0.000
        6400.000           0.000           0.000
        5811.350         579.271         369.324
        5696.069        1085.875         369.324
        8231.839        1585.959         188.790
        6400.000           0.000           0.000
        8000.000           0.000           0.000
        7995.281        1213.158         378.847
        7814.956        1225.033         410.068
        8175.606        1201.284         347.626
        8231.839        1585.959         188.790
        8000.000           0.000           0.000
        9600.000           0.000           0.000
        8610.613         528.653         347.626
        8175.606        1201.284         347.626
       10114.256        2299.635         190.962
       10506.534         877.165          58.313
       11192.297        1979.624         145.659
       10604.362        1718.808         395.256
       10596.300        2156.543         395.256
       11192.297        1979.624         145.659
       11200.000           0.000           0.000
       12800.000           0.000           0.000
       11401.684        1445.007         390.211
       11194.461        1423.376         370.139
       11608.906        1466.638         410.284
       14535.388        1860.001          76.240
       12800.000           0.000           0.000
       14400.001           0.000           0.000
       14201.869        1194.015         367.486
       13917.064        1197.276         389.959
       14486.675        1190.754         345.012
       14535.388        1860.001          76.240
       14400.001           0.000           0.000
       16000.000           0.000           0.000
       14978.463         620.000         345.012
       14486.675        1190.754         345.012
       17224.315        1919.917         307.890
       16000.000           0.000           0.000
       17600.000           0.000           0.000
       16941.438         639.972         398.774
       17265.661        1708.624         398.774
       18961.790        1751.968          48.944
       17600.000           0.000           0.000
       19200.000           0.000           0.000
       18587.263         583.989         360.396
       18416.193        1050.048         360.396
        4436.497        1560.645         224.779
        1820.535        1836.129         171.772
        3200.000           0.000           0.000
        3152.344        1132.258         546.822
        3395.716        1670.248         546.822
       23731.335        1792.943         193.493
       22400.000           0.000           0.000
       24000.001           0.000           0.000
       23377.112         597.648         366.752
       23794.437        1371.830         366.752
       25712.931        1511.197          61.061
       24000.001           0.000           0.000
       25599.999           0.000           0.000
       25104.310         503.732         369.488
       25059.583         934.795         369.488
       25712.931        1511.197          61.061
       27200.000           0.000           0.000
       27507.238        1603.221         203.824
       26806.723        1038.139         378.484
       26280.291         934.631         359.605
       27438.100        1242.447         354.349
       26972.849        1575.814         418.753
       27507.238        1603.221         203.824
       27200.000           0.000           0.000
       28800.001           0.000           0.000
       27835.746         534.407         354.349
       27438.100        1242.447         354.349
       30065.602        1613.570         376.815
       28800.001           0.000           0.000
       30400.000           0.000           0.000
       30040.559        1571.778         404.114
       30012.281        1545.589         417.652
       30068.836        1597.967         390.575
       31040.554         771.051         159.795
       30065.602        1613.570         376.815
       30400.000           0.000           0.000
       30467.005        1078.954         332.471
       30865.174         559.941         274.367
       30068.836        1597.967         390.575
       31415.600        1997.898         140.523
       33371.579        1994.991          65.733
       33224.678        2857.386          97.385
       32155.495        2179.227         433.883
       32129.819        1996.836         423.556
       32181.171        2361.618         444.210
       34548.701        1811.800         321.476
       34459.486        2336.808         216.164
       33371.579        1994.991          65.733
       34126.589        2047.867         383.254
       34527.079        1939.042         383.254
        6234.052        1737.813          65.176
        6043.012        3262.445         136.499
        5160.666        3300.186         305.135
        5812.577        2766.815         402.073
        5380.788        3290.771         402.073
       37099.539        1414.823         317.025
       35200.000           0.000           0.000
       36800.001           0.000           0.000
       36366.513         471.608         363.804
       37078.667        1316.234         363.804
       37099.539        1414.823         317.025
       36800.001           0.000           0.000
       38399.999           0.000           0.000
       37155.690        1293.086         382.235
       37078.667        1316.234         363.804
       37232.713        1269.938         400.665
       39191.316         917.871          43.450
       38399.999           0.000           0.000
       40000.000           0.000           0.000
       39197.105         305.957         259.408
       38841.217         511.781         259.408
       40125.312        1643.514          66.290
       41599.998           0.000           0.000
       41840.942        1855.796         275.546
       41188.751        1166.437         394.645
       40677.838        1027.733         368.541
       41805.432        1582.291         389.690
       41453.984        1807.916         433.497
       41840.942        1855.796         275.546
       41599.998           0.000           0.000
       43200.002           0.000           0.000
       42213.647         618.599         389.690
       41805.432        1582.291         389.690
       43418.644        1867.336          97.448
       43200.002           0.000           0.000
       44800.000           0.000           0.000
       43806.215         622.445         353.430
       43344.635        1235.251         353.430
       34548.701        1811.800         321.476
       37099.539        1414.823         317.025
       36841.038        3085.085         181.219
       36163.093        2103.903         595.273
       35749.169        1624.976         656.809
       37021.219        1920.878         521.707
       35112.332        2124.871         581.222
       48116.282        1628.322         138.732
       49975.028        1831.460         391.988
       48146.017        3166.706         333.649
       49516.266        2042.929         599.829
       49680.878        1799.313         518.232
       49351.654        2286.546         681.426
       10114.256        2299.635         190.962
        8231.839        1585.959         188.790
       10506.534         877.165          58.313
        9029.520        1667.117         482.995
        9186.530        1947.909         509.993
        8872.511        1386.326         455.998
       52954.322        1538.422         134.793
       52800.002           0.000           0.000
       54400.001           0.000           0.000
       53384.775         512.807         331.501
       52906.278        1059.472         331.501
       55816.240        1531.934         166.362
       54400.001           0.000           0.000
       55999.999           0.000           0.000
       55655.881        1120.692         362.852
       55445.028        1130.397         386.442
       55866.734        1110.988         339.262
       55816.240        1531.934         166.362
       55999.999           0.000           0.000
       57600.002           0.000           0.000
       56472.081         510.645         339.262
       55866.734        1110.988         339.262
       38196.713        1837.356          94.771
       37099.539        1414.823         317.025
       38399.999           0.000           0.000
       37898.751        1084.060         379.435
       38266.558        1206.078         349.211
       37232.713        1269.938         400.665
       37313.741        1497.314         413.307
       59004.449        1641.677          68.265
       57600.002           0.000           0.000
       59200.001           0.000           0.000
       58601.484         547.226         325.001
       59080.209        1005.661         325.001
       25712.931        1511.197          61.061
       25600.029        2863.835         132.017
       23731.335        1792.943         193.493
       24385.749        1956.179         461.734
       24447.953        2203.615         490.540
[...]
POINT_DATA      23620
SCALARS height float 1
LOOKUP_TABLE default
     0.0
     0.0
     0.0
     0.0
   171.8
     0.0
     0.0
   366.0
   366.0
   224.8
     0.0
     0.0
   356.2
   356.2
    65.2
     0.0
     0.0
   369.3
   369.3
   188.8
     0.0
     0.0
   378.8
   410.1
   347.6
   188.8
     0.0
     0.0
   347.6
   347.6
   191.0
    58.3
   145.7
   395.3
   395.3
   145.7
     0.0
     0.0
   390.2
   370.1
   410.3
    76.2
     0.0
     0.0
   367.5
   390.0
   345.0
    76.2
     0.0
     0.0
   345.0
   345.0
   307.9
     0.0
     0.0
   398.8
   398.8
    48.9
     0.0
     0.0
   360.4
   360.4
   224.8
   171.8
     0.0
   546.8
   546.8
   193.5
     0.0
     0.0
   366.8
   366.8
    61.1
     0.0
     0.0
   369.5
   369.5
    61.1
     0.0
   203.8
   378.5
   359.6
   354.3
   418.8
   203.8
     0.0
     0.0
   354.3
   354.3
   376.8
     0.0
     0.0
   404.1
   417.7
   390.6
   159.8
   376.8
     0.0
   332.5
   274.4
   390.6
   140.5
    65.7
    97.4
   433.9
   423.6
   444.2
   321.5
   216.2
    65.7
   383.3
   383.3
    65.2
   136.5
   305.1
   402.1
   402.1
   317.0
     0.0
     0.0
   363.8
   363.8
   317.0
     0.0
     0.0
   382.2
   363.8
   400.7
    43.5
     0.0
     0.0
   259.4
   259.4
    66.3
     0.0
   275.5
   394.6
   368.5
   389.7
   433.5
   275.5
     0.0
     0.0
   389.7
   389.7
    97.4
     0.0
     0.0
   353.4
   353.4
   321.5
   317.0
   181.2
   595.3
   656.8
   521.7
   581.2
   138.7
   392.0
   333.6
   599.8
   518.2
   681.4
   191.0
   188.8
    58.3
   483.0
   510.0
   456.0
   134.8
     0.0
     0.0
   331.5
   331.5
   166.4
     0.0
     0.0
   362.9
   386.4
   339.3
   166.4
     0.0
     0.0
   339.3
   339.3
    94.8
   317.0
     0.0
   379.4
   349.2
   400.7
   413.3
    68.3
     0.0
     0.0
   325.0
   325.0
    61.1
   132.0
   193.5
   461.7
   490.5
   432.9
   309.3
     0.0
     0.0
   404.9
   422.6
   387.2
    47.7
     0.0
     0.0
   245.0
   245.0
   250.9
    63.6
   128.4
   475.6
   475.6
    76.2
   145.7
     0.0
   442.1
   390.0
   410.3
   497.7
    93.6
     0.0
     0.0
   339.7
   311.9
   367.5
   165.2
     0.0
     0.0
   374.1
   398.7
   349.6
    79.7
   361.6
   165.2
   386.0
   386.0
   272.4
    68.3
     0.0
   369.6
   325.0
   414.2
   130.6
   272.0
   272.4
   547.0
   603.4
   490.6
    48.9
   262.4
   104.8
   476.2
   432.5
   520.0
   118.0
   260.9
   262.4
   493.2
   550.3
   436.2
   307.9
    76.2
     0.0
   505.8
   505.8
    58.3
   188.8
     0.0
   456.0
   456.0
   171.8
     0.0
     0.0
   427.1
   366.0
   488.2
   262.4
     0.0
     0.0
   402.4
   424.7
   380.2
   125.3
     0.0
   118.0
   282.6
   282.6
    52.5
     0.0
     0.0
   356.6
   356.6
    52.5
     0.0
   134.8
   368.9
   364.9
   331.5
   403.6
    65.2
   224.8
     0.0
   385.7
   369.3
   356.2
   427.1
    52.5
   134.8
   121.6
   437.8
   471.9
   403.6
    93.6
     0.0
     0.0
   311.9
   311.9
   111.5
   223.4
   145.7
   535.6
   521.1
   550.1
   166.4
   134.8
     0.0
   452.5
   386.4
   518.5
   376.8
   203.8
     0.0
   508.2
   417.7
   598.8
   456.0
   223.4
   111.5
   566.6
   550.1
   583.1
   272.4
     0.0
     0.0
   366.5
   366.5
   130.6
     0.0
     0.0
   394.6
   394.6
   256.4
   415.3
   132.0
   531.0
   510.5
   551.5
   204.3
   262.4
   260.9
   577.8
   594.6
   550.3
   573.6
   273.1
   111.5
   307.9
   551.1
   535.4
   581.2
   543.7
    48.9
   104.8
   273.1
   455.4
   455.4
   140.5
    26.4
    65.7
   423.6
   423.6
    77.7
   167.2
   156.8
   497.7
   521.2
   474.3
   138.7
   257.8
   392.0
   487.6
   556.7
   518.2
   423.1
   181.2
   317.0
    94.8
   467.5
   413.3
   521.7
    66.3
    43.5
     0.0
   292.4
   292.4
    66.3
    94.8
    43.5
   347.6
   402.8
   292.4
   276.8
   385.9
   203.8
   621.7
   539.1
   602.5
   679.5
    97.4
   275.5
     0.0
   398.7
   353.4
   444.0
   138.7
    77.7
     0.0
   401.6
   327.8
   400.8
   462.7
   437.0
   132.0
   385.9
   583.5
   493.5
   673.5
   128.4
     0.0
     0.0
   378.3
   355.0
   401.7
   133.0
    53.6
   300.1
   432.7
   432.7
   275.3
   134.8
   166.4
   550.8
   518.5
   583.1
    77.7
   156.8
    97.4
   450.7
   427.0
   474.3
    68.3
   166.4
     0.0
   500.4
   500.4
    93.6
   300.1
     0.0
   440.1
   404.9
   475.2
   165.2
    93.6
     0.0
   434.5
   398.7
   367.5
   501.1
   130.6
   272.4
     0.0
   424.6
   394.6
   366.5
   490.6
   138.7
   167.2
    77.7
   476.0
   489.4
   462.7
   266.7
   333.6
   524.2
   581.2
   519.5
   642.8
   121.6
   333.6
   392.0
   593.9
   491.9
   681.4
   562.9
   250.9
    47.7
    63.6
   444.0
   504.4
   376.5
   475.6
    53.6
   128.4
     0.0
   422.3
   401.7
   442.8
   236.5
   188.8
   364.3
   587.2
   568.4
   575.9
   619.9
   237.6
     0.0
     0.0
   408.5
   438.4
   378.7
   237.6
     0.0
     0.0
   483.0
   378.7
   587.4
   158.7
    93.6
   165.2
   521.8
   501.1
   542.6
   361.6
   237.6
   172.8
   575.2
   626.5
   513.2
   611.4
   158.7
   238.7
   300.1
   567.2
   590.1
   533.9
   578.3
     0.0
   237.6
     0.0
   517.6
   587.4
   447.9
    65.2
   305.1
   224.8
   496.1
   565.1
   427.1
   191.0
   223.4
   364.3
   495.7
   564.0
   427.4
   419.0
   171.8
   224.8
   569.6
   546.8
   592.5
     0.0
     0.0
   171.8
   508.8
   488.2
   529.5
   183.8
   171.8
   419.0
   553.2
   530.6
   575.8
   305.1
   419.0
   224.8
   599.9
   565.1
   592.5
   646.3
   570.3
   419.0
   305.1
   703.8
   761.3
   646.3
   462.7
   415.3
   566.2
   749.2
   726.7
   769.4
   751.8
    61.1
   385.9
   132.0
   493.5
   493.5
   570.3
   183.8
   419.0
   640.7
   761.3
   575.8
   640.9
   183.8
     0.0
     0.0
   467.5
   502.5
   432.5
   275.3
   121.6
   134.8
   483.7
   471.9
   495.5
   111.5
   145.7
    76.2
   509.4
   497.7
   521.1
   111.5
    76.2
   307.9
   520.6
   505.8
   535.4
   125.3
   118.0
   262.4
   359.4
   436.2
   282.6
    61.1
   193.5
     0.0
   390.6
   369.5
   366.8
   432.9
   682.1
   364.3
   456.0
   761.2
   755.7
   710.5
   835.4
    48.9
   273.1
   307.9
   492.9
   426.9
   581.2
   455.4
   245.4
   456.0
   111.5
   616.1
   583.1
   649.1
   276.8
   203.8
   376.8
   595.6
   598.8
   602.5
   575.2
   140.5
   376.8
   159.8
   444.1
   481.2
   406.9
   265.9
   216.2
   181.2
   559.7
   544.7
   574.6
   156.8
   275.5
    97.4
   486.8
   529.6
   444.0
   140.5
   159.8
    26.4
   388.8
   370.7
   406.9
   140.5
   217.6
   276.8
   563.3
   591.3
   535.3
    77.7
    97.4
     0.0
   427.0
   427.0
   241.5
   275.5
   156.8
   557.1
   584.7
   529.6
   216.2
    97.4
    65.7
   408.1
   408.1
   256.4
   437.0
   624.7
   723.8
   638.9
   808.7
   204.3
   224.9
   104.8
   560.2
   560.2
   431.9
    94.8
   161.2
   532.2
   559.6
   485.5
   583.8
   677.0
   385.9
   276.8
   712.7
   745.9
   679.5
   204.3
   104.8
   262.4
   557.3
   594.6
   520.0
    52.5
   121.6
   392.0
   491.9
   491.9
    47.7
   134.6
   309.3
   453.9
   453.9
   298.8
   166.4
    68.3
   534.3
   591.4
   500.4
   507.2
   127.3
    68.3
   272.4
   459.7
   414.2
   505.2
   504.8
   156.8
   167.2
   557.5
   521.2
   593.9
   133.0
   128.4
    53.6
   450.6
   458.4
   442.8
   134.6
   272.0
   309.3
   549.3
   616.1
   453.9
   507.5
   453.7
   524.2
   748.4
   813.0
   774.1
   868.5
   821.4
   302.3
   121.6
   275.3
   571.4
   495.5
   647.4
   251.7
   397.1
   431.9
   683.3
   738.5
   628.2
   470.4
   275.3
   166.4
   633.7
   583.1
   684.2
   298.8
    68.3
   127.3
   507.2
   507.2
   272.0
   127.3
   272.4
   554.9
   603.4
   505.2
   550.2
   605.1
   302.3
   275.3
   685.6
   647.4
   723.8
   158.7
   300.1
    93.6
   504.6
   475.2
   533.9
   250.9
   392.1
   134.6
   539.7
   547.0
   532.4
   250.9
   134.6
    47.7
   518.4
   532.4
   504.4
   237.6
   127.3
   272.0
   592.3
   550.2
   634.4
   462.7
   260.9
   415.3
   673.0
   652.3
   614.6
   751.8
   361.8
   165.2
   411.6
   661.9
   610.0
   713.9
   133.0
   541.7
   128.4
   511.1
   458.4
   563.8
   256.6
   224.9
   504.7
   622.2
   605.4
   639.0
   361.6
   411.6
   165.2
   672.9
   672.9
     0.0
   237.6
     0.0
   447.9
   447.9
   361.8
   610.1
   655.9
   795.6
   729.7
   861.5
   342.6
   172.8
   189.1
   502.0
   568.6
   435.4
   320.4
   469.7
   566.5
   728.9
   782.2
   675.5
   231.5
   183.8
   570.3
   605.7
   560.6
   640.9
   655.0
   361.6
   172.8
   411.6
   631.5
   619.9
   672.9
   611.4
     0.0
   172.8
   237.6
   467.0
   513.2
   420.8
   456.0
   364.3
   223.4
   637.3
   564.0
   710.5
   183.8
     0.0
   171.8
   522.5
   530.6
   529.5
   502.5
   320.4
   305.1
   136.5
   510.2
   618.4
   402.1
   236.5
   364.3
   648.5
   672.5
   725.2
   619.9
   808.9
   796.4
   900.4
  1062.8
  1011.8
  1096.1
  1097.3
   403.7
   456.0
   245.4
   695.2
   741.2
   649.1
   320.4
   136.5
   236.5
   530.6
   530.6
   256.6
   504.7
   245.4
   531.3
   581.0
   481.5
   224.9
   273.1
   104.8
   535.3
   535.3
   216.2
   565.5
    97.4
   523.0
   408.1
   637.9
   565.5
   217.6
    97.4
   597.8
   597.8
   293.7
   570.3
   566.5
   752.5
   703.1
   873.7
   650.2
   677.0
   437.0
   385.9
   717.1
   745.9
   673.5
   767.7
   358.0
   276.8
   217.6
   629.3
   667.3
   591.3
   376.3
   687.2
   579.9
   831.4
   753.1
   909.7
   216.2
   599.5
   565.5
   694.4
   799.2
   637.9
   639.3
   431.9
   181.2
    94.8
   559.6
   559.6
   241.5
   161.2
   275.5
   555.5
   543.9
   584.7
   535.6
   358.0
   677.0
   276.8
   715.1
   667.3
   763.0
   352.9
   504.8
   515.0
   764.4
   709.9
   819.0
   352.9
   392.1
   606.5
   701.6
   662.1
   741.1
   608.8
   217.6
   565.5
   722.1
   597.8
   846.4
   569.8
   358.0
   608.8
   833.1
   758.5
   907.7
   524.1
   605.1
   470.4
   807.7
   813.5
   764.1
   854.8
   265.9
   431.9
   539.3
   721.2
   643.2
   799.2
   265.9
   539.3
   599.5
   845.9
   845.9
   293.7
   188.4
   231.5
   547.7
   501.5
   593.9
   504.7
   410.1
   777.1
   807.3
   760.7
   853.9
   524.2
   333.6
   121.6
   591.1
   562.9
   642.8
   596.2
   302.3
   524.2
   121.6
   656.8
   596.2
   717.3
   352.9
   241.5
   156.8
   547.9
   547.9
   605.1
   275.3
   470.4
   748.8
   684.2
   813.5
   298.8
   524.1
   470.4
   705.4
   646.7
   764.1
   534.0
   748.4
   524.2
   853.3
   838.1
   868.5
   539.3
   608.8
   599.5
   864.9
   897.4
   845.9
   845.9
   431.5
   410.1
   224.9
   674.8
   608.4
   741.2
   282.1
   272.0
   134.6
   531.9
   556.2
   507.5
   282.1
   237.6
   272.0
   620.9
   556.2
   634.4
   636.8
   817.8
   605.1
   524.1
   869.8
   854.8
   884.8
   543.5
   534.0
   302.3
   698.6
   698.6
   298.8
   237.6
   483.7
   625.2
   576.3
   674.2
   396.2
   541.7
   238.7
   668.6
   736.2
   601.0
   315.3
   238.7
   158.7
   611.1
   643.9
   578.3
   396.2
   392.1
   541.7
   737.0
   734.3
   736.2
   739.2
   606.5
   392.1
   626.3
   818.3
   741.1
   895.5
   626.3
   392.1
   396.2
   770.4
   739.2
   801.7
   315.3
   396.2
   238.7
   678.2
   643.9
   712.4
   361.8
   315.3
   158.7
   621.9
   621.9
   673.3
   864.8
   817.8
  1054.4
  1107.5
  1001.4
   361.8
   655.9
   598.1
   830.2
   921.1
   739.3
     0.0
   172.8
     0.0
   420.8
   420.8
   342.6
   411.6
   172.8
   619.7
   691.8
   619.9
   568.6
     0.0
   189.1
   172.8
   435.4
   435.4
   192.6
   189.1
     0.0
   473.8
   473.8
   624.7
   808.9
   900.4
   991.2
   947.6
  1097.3
   921.5
   740.5
   608.8
   539.3
   896.4
   946.9
   845.9
   320.4
   236.5
   469.7
   603.1
   675.5
   530.6
    86.5
     0.0
     0.0
   220.4
   220.4
    94.2
    86.5
   183.8
   410.2
   465.0
   355.4
   682.1
   648.5
   364.3
   787.3
   755.7
   725.2
   913.8
   431.5
   224.9
   204.3
   584.3
   560.2
   608.4
   682.1
   456.0
   653.8
   873.9
   806.8
   835.4
   974.4
   504.7
   224.9
   410.1
   699.9
   639.0
   760.7
   727.2
   566.5
   469.7
   841.7
   901.2
   782.2
   613.0
   403.7
   523.0
   782.0
   733.4
   830.6
   613.0
   653.8
   403.7
   926.2
   926.2
   462.7
   687.2
   303.5
   774.9
   774.9
   608.8
   565.5
   599.5
   854.1
   799.2
   846.4
   897.4
   711.6
   431.5
   727.9
   871.1
   768.9
   973.3
   376.3
   303.5
   687.2
   693.3
   753.1
   633.4
   777.1
   841.4
   523.0
   967.5
   866.1
  1068.9
   808.9
   437.0
   796.4
  1011.8
  1011.8
   796.4
   437.0
   677.0
   879.9
   767.7
   992.1
   704.7
   539.3
   431.9
   827.2
   743.4
   799.2
   891.9
   662.9
   796.4
   677.0
   987.7
   978.6
   992.1
   997.0
   849.4
   796.4
   662.9
  1030.5
  1091.7
   997.0
   988.8
   251.7
   431.9
   161.2
   606.0
   583.8
   628.2
   453.7
   266.7
   524.2
   774.1
   774.1
   546.0
   302.3
   605.1
   815.1
   723.8
   906.4
   817.8
   546.0
   605.1
   911.1
   906.4
   915.8
   397.1
   704.7
   431.9
   740.9
   738.5
   743.4
   599.8
   827.6
   900.3
  1025.3
  1115.3
   935.3
   665.5
   849.4
   662.9
   955.2
   921.7
   988.8
   900.3
   777.1
   711.6
  1041.6
  1076.5
  1022.8
  1032.4
   599.8
   431.3
   352.9
   720.5
   801.6
   649.2
   746.6
   665.8
   515.0
   504.8
   841.3
   827.6
   819.0
   878.9
   453.7
   748.4
   665.8
   902.0
   982.5
   821.4
   862.1
   665.8
   748.4
   989.7
   996.9
   982.5
   857.1
   515.0
   665.8
   934.7
   878.9
   990.5
   682.1
   804.8
   727.2
  1008.6
  1041.9
   984.9
  1006.0
   432.3
   566.5
   727.2
   817.8
   763.8
   901.2
   782.8
   613.0
   841.4
   816.9
  1017.5
   930.8
  1104.2
   298.8
   483.7
   524.1
   746.0
   817.9
   674.2
   325.1
   237.6
   282.1
   654.3
   636.8
   671.8
   900.3
   546.0
   817.8
   987.9
   904.9
   915.8
  1102.7
   361.8
   342.6
   192.6
   582.5
   549.6
   615.4
   325.1
   483.7
   237.6
   664.1
   664.1
   707.9
   325.1
   420.7
   761.0
   713.2
   808.9
   528.4
   396.2
   315.3
   749.7
   787.0
   712.4
   420.7
   325.1
   282.1
   692.5
   671.8
   713.2
   673.3
   556.2
   900.3
   927.5
   881.0
   906.8
  1006.3
   606.5
   626.3
   554.8
   890.0
   900.0
   895.5
   879.3
   864.8
   900.3
   817.8
  1123.1
  1107.5
  1102.7
  1150.6
   707.9
   556.2
   325.1
   873.1
   873.1
   900.4
   900.6
   900.4
  1078.2
  1023.1
  1023.1
  1169.2
   504.7
   777.1
   523.0
   828.2
   792.4
   866.1
   853.9
   775.5
   626.3
   396.2
   885.7
   801.7
   969.8
   528.4
   772.4
   775.5
   973.4
  1063.7
   883.1
   655.9
   608.9
   638.3
   924.0
   870.2
   923.6
   951.2
   655.9
   638.3
   598.1
   929.7
   910.3
   921.1
   951.2
   361.8
   610.1
   342.6
   662.1
   708.8
   615.4
     0.0
   192.6
     0.0
   518.3
   518.3
   638.3
   827.6
   598.1
   917.0
   923.7
   910.3
   361.8
   186.2
   608.9
   625.7
   691.2
   560.1
   293.7
   231.5
   570.3
   641.6
   703.1
   655.0
   593.9
    94.2
     0.0
     0.0
   432.8
   432.8
    91.2
    94.2
   231.5
   411.9
   432.7
   391.1
   682.1
   727.2
   469.7
   984.9
   984.9
   432.3
   727.2
   676.6
   863.8
   944.9
   782.8
   900.6
   687.2
   669.1
   961.1
   966.4
   936.6
   981.4
   507.1
   665.5
   662.9
   830.5
   739.3
   921.7
   900.4
   900.6
   669.1
   998.5
   997.9
   981.4
  1023.1
   613.0
   804.8
   653.8
   931.0
   926.2
   935.8
   900.2
   727.2
   804.8
  1061.5
  1040.9
  1041.9
  1099.2
   832.3
   665.5
   771.8
  1018.4
   966.8
  1070.0
   579.9
   900.6
   799.3
   968.3
   913.5
  1023.1
   900.3
   711.6
   727.9
  1009.3
  1043.4
   973.3
  1032.4
   507.1
   569.8
   665.5
   776.6
   866.1
   687.2
   579.9
   883.5
   727.9
   948.7
  1033.7
   895.7
   911.9
   742.7
   740.5
   704.7
  1029.2
  1023.2
   999.1
  1047.4
   849.4
   900.4
   796.4
  1108.8
  1091.7
  1096.1
  1138.7
   816.9
   900.2
   804.8
  1104.2
  1098.2
  1099.2
  1115.2
   599.8
   900.3
   742.7
   977.4
  1053.3
   931.8
   935.3
   900.5
   900.4
   900.5
  1148.1
  1169.2
  1169.1
  1073.8
   740.5
   539.3
   704.7
   957.6
   891.9
  1023.2
   742.7
   704.7
   397.1
   999.1
   999.1
   832.3
   849.4
   665.5
  1124.4
  1124.4
   900.3
   900.3
   816.9
  1127.3
  1109.4
  1104.8
  1169.1
   866.9
   740.5
   895.6
  1054.6
  1056.5
  1052.6
   864.2
   546.0
   900.3
   961.6
   891.1
   902.0
  1080.8
   857.1
   827.6
   515.0
   998.7
   877.4
  1120.0
   599.8
   742.7
   397.1
   931.8
   931.8
   900.4
   900.4
   900.4
  1022.9
  1022.9
   892.0
   900.4
   849.4
  1151.6
  1164.6
  1138.7
   900.3
   900.3
   546.0
  1013.1
   904.9
   902.0
  1169.0
   862.1
   857.1
   665.8
  1056.6
   996.9
   990.5
  1145.6
   895.4
   857.1
   862.1
  1145.3
  1145.6
  1145.1
   864.2
   900.3
   900.3
  1130.2
  1155.7
  1080.8
  1141.6
   866.9
   895.6
   886.3
  1155.2
  1161.7
  1148.7
   673.3
   817.8
   524.1
   919.0
   869.9
   884.8
  1001.4
   556.2
   483.7
   325.1
   735.5
   806.9
   664.1
   900.3
   900.3
   864.8
  1157.5
  1169.1
  1150.6
  1148.1
   900.3
   900.4
   900.4
  1169.1
  1169.1
  1169.1
  1169.1
   866.9
   886.3
   832.3
  1136.4
  1124.0
  1148.7
   554.8
   626.3
   680.0
   927.4
   954.9
   900.0
   900.5
   626.3
   775.5
  1006.0
   957.8
   969.8
  1075.3
   900.3
   556.2
   707.9
   934.5
   873.1
   906.8
  1033.8
   554.8
   680.0
   900.3
   968.2
  1011.8
   924.7
   900.5
   900.5
   900.5
  1130.1
  1130.1
   900.3
   900.3
   900.3
  1169.1
  1169.1
   900.5
   680.0
   626.3
   976.0
   957.8
   954.9
  1014.5
   900.5
   900.5
   775.5
  1087.5
  1066.3
  1075.3
  1130.1
   772.4
   900.5
   775.5
  1066.8
  1063.7
  1066.3
  1071.6
   900.5
   900.5
   900.5
  1073.8
  1073.8
   900.5
   680.0
   900.5
  1062.0
  1016.8
  1014.5
  1165.5
    96.8
   192.6
     0.0
   470.5
   422.7
   518.3
   296.4
   555.7
   638.3
   882.1
   882.1
   296.4
   638.3
   608.9
   810.7
   697.8
   923.6
   361.8
    96.8
   186.2
   536.6
   560.1
   513.0
     0.0
    96.8
     0.0
   400.8
   400.8
   266.2
    96.8
     0.0
   422.3
   443.8
   400.8
   900.3
   900.3
   827.6
  1069.1
  1022.8
  1115.3
   900.3
   841.4
   777.1
  1091.7
  1130.2
  1068.9
  1072.4
   267.2
   188.4
   293.7
   565.0
   520.2
   609.8
    82.6
    91.2
   182.3
   446.5
   452.4
   440.5
    91.2
     0.0
     0.0
   473.5
   473.5
   366.8
   267.2
   293.7
   629.6
   649.4
   609.8
   267.2
   367.2
   182.3
   574.5
   540.2
   608.7
   676.6
   900.2
   579.7
   922.5
   936.4
   876.0
   996.7
   883.5
   900.4
   727.9
  1050.1
  1035.1
  1033.7
  1089.8
   900.3
   841.4
   900.3
  1131.5
  1132.8
  1130.2
   900.4
   900.4
   900.6
  1023.1
  1023.1
  1023.1
   900.4
   900.4
   900.4
  1169.1
  1169.1
   900.3
   900.3
   900.3
  1022.8
  1022.8
   883.5
   900.4
   900.4
  1123.5
  1089.8
  1157.2
   900.3
   900.2
   816.9
  1138.2
  1169.1
  1115.2
  1109.4
   883.5
   900.4
   900.4
  1161.7
  1157.6
  1169.2
  1157.2
   866.9
   608.8
   740.5
   986.5
   963.0
   946.9
  1056.5
   900.4
   900.4
   900.4
  1169.2
  1169.2
   832.3
   892.0
   849.4
  1124.3
  1124.4
  1124.2
   892.0
   900.4
   900.4
  1093.8
  1164.6
  1022.9
   900.3
   895.4
   862.1
  1154.2
  1140.7
  1145.1
  1167.6
   900.3
   900.3
   742.7
  1069.7
  1054.3
  1046.6
  1123.7
   900.3
   740.5
   742.7
  1049.1
  1046.1
  1047.4
  1054.3
   900.3
   740.5
   900.3
  1097.7
  1053.3
  1046.1
  1169.1
   900.4
   900.4
   900.4
  1125.3
  1096.4
  1169.2
  1096.4
   900.3
   900.3
   900.3
  1024.1
  1022.8
  1022.8
  1026.8
   877.5
   638.3
   555.7
   919.1
   981.9
   882.1
   899.8
   900.3
   827.6
   857.1
  1051.9
  1120.0
  1022.8
  1022.8
   895.4
   900.3
   857.1
  1022.8
  1022.8
  1022.8
   900.3
   900.3
   742.7
  1100.7
  1053.3
  1046.6
  1169.1
   900.3
   900.3
   895.6
  1167.2
  1166.2
  1166.4
  1169.1
   900.3
   900.3
   900.3
  1155.7
  1155.7
   900.3
   900.3
   900.3
  1032.4
  1042.0