# vtk DataFile Version 3.0
Landscape
ASCII
DATASET UNSTRUCTURED_GRID
POINTS      29604 float
           0.000           0.000           0.000
        1600.000           0.000           0.000
           0.000        1600.000           0.000
         533.333         533.333           0.000
        1820.535        1836.129         201.097
        1600.000           0.000           0.000
        3200.000           0.000           0.000
        2206.845         612.043         372.760
        1770.262        1417.572         372.760
        4436.497        1560.645         273.543
        3200.000           0.000           0.000
        4800.000           0.000           0.000
        4145.499         520.215         367.052
        4486.716        1345.036         367.052
        6234.052        1737.813          57.617
        4800.000           0.000           0.000
        6400.000           0.000           0.000
        5811.350         579.271         367.226
        5679.698        1066.036         367.226
        8231.839        1585.959         210.869
        6400.000           0.000           0.000
        8000.000           0.000           0.000
        8016.093        1250.103         383.979
        7850.244        1255.584         414.609
        8181.941        1244.621         353.349
        8231.839        1585.959         210.869
        8000.000           0.000           0.000
        9600.000           0.000           0.000
        8610.613         528.653         353.349
        8181.941        1244.621         353.349
       10114.256        2299.635         185.309
       10506.534         877.165          61.335
       11192.297        1979.624         147.992
       10604.362        1718.808         392.466
       10606.663        2153.467         392.466
       11192.297        1979.624         147.992
       11200.000           0.000           0.000
       12800.000           0.000           0.000
       11401.836        1445.067         391.591
       11194.459        1423.873         371.305
       11609.212        1466.261         411.876
       14535.388        1860.001          62.348
       12800.000           0.000           0.000
       14400.001           0.000           0.000
       14180.887        1156.328         364.016
       13877.498        1154.870         386.121
       14484.275        1157.787         341.910
       14535.388        1860.001          62.348
       14400.001           0.000           0.000
       16000.000           0.000           0.000
       14978.463         620.000         341.910
       14484.275        1157.787         341.910
       17224.315        1919.917         416.125
       16000.000           0.000           0.000
       17600.000           0.000           0.000
       16941.438         639.972         436.914
       17206.967        1892.713         436.914
       18961.790        1751.968          29.357
       17600.000           0.000           0.000
       19200.000           0.000           0.000
       18587.263         583.989         353.400
       18371.682         992.783         353.400
        4436.497        1560.645         273.543
        1820.535        1836.129         201.097
        3200.000           0.000           0.000
        3152.344        1132.258         593.201
        3461.557        1663.315         593.201
       23731.335        1792.943         283.377
       22400.000           0.000           0.000
       24000.001           0.000           0.000
       23377.112         597.648         385.851
       23767.269        1553.138         385.851
       25712.931        1511.197          50.544
       24000.001           0.000           0.000
       25599.999           0.000           0.000
       25104.310         503.732         366.506
       25030.148         908.826         366.506
       25712.931        1511.197          50.544
       27200.000           0.000           0.000
       27507.238        1603.221         237.392
       26806.723        1038.139         379.858
       26307.246         907.239         356.319
       27450.566        1307.497         362.857
       27053.748        1579.963         421.509
       27507.238        1603.221         237.392
       27200.000           0.000           0.000
       28800.001           0.000           0.000
       27835.746         534.407         362.857
       27450.566        1307.497         362.857
       30065.602        1613.570         271.038
       28800.001           0.000           0.000
       30400.000           0.000           0.000
       29755.201         537.857         401.578
       29873.037        1368.060         401.578
       31040.554         771.051         303.490
       30065.602        1613.570         271.038
       30400.000           0.000           0.000
       30502.052         794.873         545.504
       30585.347        1164.425         545.504
       31415.600        1997.898         136.899
       33371.579        1994.991          25.164
       33224.678        2857.386          34.513
       32044.021        2142.299         400.662
       32062.538        1996.936         395.230
       32025.505        2287.662         406.095
       34548.701        1811.800         196.744
       34459.486        2336.808         152.196
       33371.579        1994.991          25.164
       34126.589        2047.867         286.896
       34513.806        2017.147         286.896
        6234.052        1737.813          57.617
        6043.012        3262.445         120.292
        5160.666        3300.186         189.753
        5812.577        2766.815         334.775
        5510.945        3285.204         334.775
       37099.539        1414.823         234.168
       35200.000           0.000           0.000
       36800.001           0.000           0.000
       36366.513         471.608         417.382
       36739.206        1146.438         417.382
       37099.539        1414.823         234.168
       36800.001           0.000           0.000
       38399.999           0.000           0.000
       37433.180         471.608         386.654
       37349.430        1142.957         386.654
       39191.316         917.871          48.120
       38399.999           0.000           0.000
       40000.000           0.000           0.000
       39197.105         305.957         261.589
       38844.927         516.084         261.589
       40125.312        1643.514          26.058
       39191.316         917.871          48.120
       40000.000           0.000           0.000
       39772.209         853.795         274.016
       39635.795        1263.197         274.016
       43418.644        1867.336          48.963
       41599.998           0.000           0.000
       43200.002           0.000           0.000
       43006.931        1113.543         363.116
       42683.338        1112.343         387.130
       43330.524        1114.742         339.102
       43418.644        1867.336          48.963
       43200.002           0.000           0.000
       44800.000           0.000           0.000
       43806.215         622.445         339.102
       43330.524        1114.742         339.102
       34548.701        1811.800         196.744
       37099.539        1414.823         234.168
       36841.038        3085.085         178.221
       36163.093        2103.903         548.340
       35988.546        1587.723         575.163
       36995.800        2085.116         505.281
       35606.626        2399.427         549.897
       48116.282        1628.322         161.212
       49600.000           0.000           0.000
       49975.028        1831.460         199.935
       49230.437        1153.260         427.752
       48509.016        1197.311         394.917
       49888.043        1406.667         376.786
       49176.616        1744.203         497.622
       10114.256        2299.635         185.309
        8231.839        1585.959         210.869
       10506.534         877.165          61.335
        8963.947        1651.818         495.482
        9083.067        1908.683         523.645
        8844.826        1394.953         467.320
       52954.322        1538.422         139.213
       52800.002           0.000           0.000
       54400.001           0.000           0.000
       53384.775         512.807         332.719
       52906.600        1062.682         332.719
       55816.240        1531.934         180.835
       54400.001           0.000           0.000
       55999.999           0.000           0.000
       55663.455        1143.758         366.911
       55463.334        1150.198         390.404
       55863.575        1137.318         343.419
       55816.240        1531.934         180.835
       55999.999           0.000           0.000
       57600.002           0.000           0.000
       56472.081         510.645         343.419
       55863.575        1137.318         343.419
       38196.713        1837.356         101.105
       37099.539        1414.823         234.168
       38399.999           0.000           0.000
       37898.751        1084.060         373.595
       38265.621        1214.546         351.215
       37349.430        1142.957         386.654
       37464.913        1555.533         395.276
       59004.449        1641.677          31.590
       57600.002           0.000           0.000
       59200.001           0.000           0.000
       58601.484         547.226         313.582
       59089.081         931.184         313.582
       25712.931        1511.197          50.544
       25600.029        2863.835         101.114
       23731.335        1792.943         283.377
       24158.957        1896.251         471.134
       24190.216        2055.914         495.810
       24127.699        1736.588         446.458
       63784.513        1656.536         223.293
       62399.998           0.000           0.000
[...]
POINT_DATA      29604
SCALARS height float 1
LOOKUP_TABLE default
     0.0
     0.0
     0.0
     0.0
   201.1
     0.0
     0.0
   372.8
   372.8
   273.5
     0.0
     0.0
   367.1
   367.1
    57.6
     0.0
     0.0
   367.2
   367.2
   210.9
     0.0
     0.0
   384.0
   414.6
   353.3
   210.9
     0.0
     0.0
   353.3
   353.3
   185.3
    61.3
   148.0
   392.5
   392.5
   148.0
     0.0
     0.0
   391.6
   371.3
   411.9
    62.3
     0.0
     0.0
   364.0
   386.1
   341.9
    62.3
     0.0
     0.0
   341.9
   341.9
   416.1
     0.0
     0.0
   436.9
   436.9
    29.4
     0.0
     0.0
   353.4
   353.4
   273.5
   201.1
     0.0
   593.2
   593.2
   283.4
     0.0
     0.0
   385.9
   385.9
    50.5
     0.0
     0.0
   366.5
   366.5
    50.5
     0.0
   237.4
   379.9
   356.3
   362.9
   421.5
   237.4
     0.0
     0.0
   362.9
   362.9
   271.0
     0.0
     0.0
   401.6
   401.6
   303.5
   271.0
     0.0
   545.5
   545.5
   136.9
    25.2
    34.5
   400.7
   395.2
   406.1
   196.7
   152.2
    25.2
   286.9
   286.9
    57.6
   120.3
   189.8
   334.8
   334.8
   234.2
     0.0
     0.0
   417.4
   417.4
   234.2
     0.0
     0.0
   386.7
   386.7
    48.1
     0.0
     0.0
   261.6
   261.6
    26.1
    48.1
     0.0
   274.0
   274.0
    49.0
     0.0
     0.0
   363.1
   387.1
   339.1
    49.0
     0.0
     0.0
   339.1
   339.1
   196.7
   234.2
   178.2
   548.3
   575.2
   505.3
   549.9
   161.2
     0.0
   199.9
   427.8
   394.9
   376.8
   497.6
   185.3
   210.9
    61.3
   495.5
   523.6
   467.3
   139.2
     0.0
     0.0
   332.7
   332.7
   180.8
     0.0
     0.0
   366.9
   390.4
   343.4
   180.8
     0.0
     0.0
   343.4
   343.4
   101.1
   234.2
     0.0
   373.6
   351.2
   386.7
   395.3
    31.6
     0.0
     0.0
   313.6
   313.6
    50.5
   101.1
   283.4
   471.1
   495.8
   446.5
   223.3
     0.0
     0.0
   386.9
   406.4
   367.3
    35.9
     0.0
     0.0
   239.1
   239.1
   289.7
    80.4
   160.7
   499.1
   499.1
    62.3
   148.0
     0.0
   439.8
   386.1
   411.9
   498.7
    86.5
     0.0
     0.0
   337.7
   309.6
   365.9
   158.1
     0.0
     0.0
   372.7
   397.5
   347.9
    77.2
   356.8
   158.1
   384.0
   384.0
   331.9
    31.6
     0.0
   359.1
   313.6
   404.5
   173.6
   414.6
   331.9
   626.4
   710.0
   542.8
    29.4
   348.8
    59.6
   471.9
   437.4
   506.3
   123.9
   282.1
   348.8
   530.9
   596.3
   465.6
   416.1
    62.3
     0.0
   477.0
   436.9
   517.1
    61.3
   210.9
     0.0
   467.3
   467.3
   201.1
     0.0
     0.0
   445.7
   372.8
   518.7
   348.8
     0.0
     0.0
   418.4
   439.3
   397.6
   158.3
     0.0
   123.9
   302.1
   302.1
    19.1
     0.0
     0.0
   343.2
   343.2
    19.1
     0.0
   139.2
   356.6
   351.7
   332.7
   382.0
    57.6
   273.5
     0.0
   390.0
   367.2
   367.1
   435.0
    19.1
   139.2
    39.4
   407.1
   432.3
   382.0
    86.5
     0.0
     0.0
   309.6
   309.6
    89.4
   218.1
   148.0
   533.4
   520.9
   546.0
   180.8
   139.2
     0.0
   463.7
   390.4
   537.0
   271.0
   237.4
     0.0
   505.3
   401.6
   609.0
   391.3
   218.1
    89.4
   559.5
   546.0
   573.0
   331.9
     0.0
     0.0
   380.4
   380.4
   173.6
     0.0
     0.0
   403.5
   403.5
   163.9
   436.6
   101.1
   491.5
   491.5
   102.4
   348.8
   282.1
   551.5
   559.3
   596.3
   521.3
   202.1
    89.4
   416.1
   536.7
   542.7
   558.8
   519.6
    29.4
    59.6
   202.1
   432.5
   432.5
   136.9
    11.5
    25.2
   395.2
   395.2
    74.3
   150.8
    76.2
   462.0
   480.0
   444.0
   161.2
   472.1
   150.8
   527.3
   555.6
   499.0
   178.2
   234.2
   101.1
   450.3
   395.3
   505.3
    26.1
    49.0
   105.6
   445.1
   441.1
   423.3
   464.0
    26.1
   101.1
    48.1
   329.5
   385.0
   274.0
   272.6
   101.1
   311.2
   506.9
   459.7
   554.2
   161.2
    74.3
     0.0
   404.8
   327.0
   405.9
   475.0
   160.7
     0.0
     0.0
   384.7
   362.3
   407.2
    96.9
    42.5
   341.6
   420.9
   420.9
   254.8
   139.2
   180.8
   567.3
   537.0
   597.7
    74.3
    76.2
    49.0
   424.5
   405.0
   444.0
    31.6
   180.8
     0.0
   490.2
   490.2
    86.5
   341.6
     0.0
   448.3
   412.7
   483.9
   158.1
    86.5
     0.0
   434.2
   397.5
   365.9
   502.5
   173.6
   331.9
     0.0
   455.3
   403.5
   380.4
   542.8
   161.2
   150.8
    74.3
   487.0
   499.0
   475.0
   221.5
   472.1
   413.9
   615.1
   537.8
   692.4
    39.4
   472.1
   199.9
   484.2
   615.0
   392.0
   527.9
   289.7
    35.9
    80.4
   449.7
   505.3
   379.1
   499.1
    42.5
   160.7
     0.0
   429.0
   407.2
   450.9
   190.2
   210.9
   327.8
   586.7
   570.9
   601.2
   592.8
   253.9
     0.0
     0.0
   412.2
   441.7
   382.7
   253.9
     0.0
     0.0
   499.5
   382.7
   616.3
   143.2
    86.5
   158.1
   523.6
   502.5
   544.7
   356.8
   253.9
   175.6
   596.8
   653.6
   525.6
   632.0
   143.2
   154.3
   341.6
   546.3
   547.9
   539.8
   549.5
     0.0
   253.9
     0.0
   539.1
   616.3
   462.0
    57.6
   189.8
   273.5
   488.1
   541.2
   435.0
   185.3
   218.1
   327.8
   489.4
   558.8
   420.1
   189.8
   201.1
   273.5
   584.0
   600.8
   593.2
   541.2
     0.0
     0.0
   201.1
   541.9
   518.7
   565.2
   180.8
   201.1
   189.8
   588.4
   553.8
   600.8
   601.7
   289.6
   436.6
   387.6
   651.3
   687.8
   604.0
   675.6
    50.5
   311.2
   101.1
   459.7
   459.7
   349.1
   180.8
   189.8
   619.7
   601.7
   637.7
   180.8
     0.0
     0.0
   468.0
   505.5
   430.5
   254.8
    39.4
   139.2
   433.1
   432.3
   433.8
    89.4
   148.0
    62.3
   509.8
   498.7
   520.9
    89.4
    62.3
   416.1
   529.9
   517.1
   542.7
   158.3
   123.9
   348.8
   383.9
   465.6
   302.1
    50.5
   283.4
     0.0
   397.6
   366.5
   385.9
   446.5
   272.2
   396.8
   155.1
   517.7
   437.3
   598.1
    29.4
   202.1
   416.1
   479.9
   436.0
   558.8
   432.5
   116.3
   202.1
    59.6
   440.3
   440.3
   267.4
   237.4
   271.0
   606.3
   633.3
   609.0
   531.5
   136.9
   271.0
   303.5
   488.0
   456.9
   545.5
   453.1
   234.3
   152.2
   178.2
   527.3
   522.2
   532.4
   267.4
   311.2
   237.4
   631.6
   552.9
   633.3
   669.0
   136.9
   303.5
    11.5
   423.9
   394.7
   453.1
   136.9
    56.5
   267.4
   472.7
   482.1
   463.2
    74.3
    49.0
     0.0
   405.0
   405.0
   105.6
    49.0
    76.2
   423.3
   423.3
   152.2
    34.5
    25.2
   344.3
   344.3
   163.9
   272.6
   294.7
   599.3
   555.8
   642.8
   102.4
   116.3
    59.6
   469.3
   469.3
   503.3
   101.1
    56.6
   505.2
   584.7
   446.8
   526.0
   571.7
   311.2
   267.4
   680.9
   699.7
   669.0
   680.9
   412.3
   391.3
   337.2
   735.7
   773.5
   693.1
   718.1
    19.1
    39.4
   199.9
   392.0
   392.0
    35.9
    92.7
   223.3
   401.4
   401.4
   181.5
   180.8
    31.6
   514.8
   569.3
   490.2
   465.9
    55.4
    31.6
   331.9
   437.0
   404.5
   469.5
   516.9
    76.2
   150.8
   539.3
   480.0
   598.6
    96.9
   160.7
    42.5
   454.0
   457.2
   450.9
    92.7
   414.6
   223.3
   506.0
   624.8
   401.4
   510.1
   330.6
   413.9
   303.1
   668.4
   666.4
   679.0
   660.7
    69.3
    39.4
   254.8
   475.5
   433.8
   517.1
    78.6
   105.2
   503.3
   549.7
   549.7
   484.0
   254.8
   180.8
   646.2
   597.7
   694.8
   181.5
    31.6
    55.4
   465.9
   465.9
   414.6
    55.4
   331.9
   573.4
   710.0
   469.5
   526.4
   545.7
    69.3
   254.8
   539.0
   517.1
   560.8
   143.2
   341.6
    86.5
   511.9
   483.9
   539.8
   289.7
   419.6
    92.7
   522.2
   528.7
   515.7
   289.7
    92.7
    35.9
   510.5
   515.7
   505.3
    84.2
    55.4
   414.6
   554.0
   526.4
   581.5
   289.6
   282.1
   436.6
   654.5
   640.7
   650.3
   675.6
   322.7
   158.1
   341.4
   649.2
   615.8
   682.5
    96.9
   537.6
   160.7
   504.9
   561.2
   457.2
   547.6
   155.1
   391.3
    89.4
   579.9
   573.0
   586.8
   356.8
   341.4
   158.1
   647.4
   647.4
     0.0
   253.9
     0.0
   462.0
   462.0
   322.7
   608.6
   677.6
   798.9
   726.5
   871.3
   332.2
   175.6
   187.6
   509.0
   581.9
   436.0
   274.4
   190.2
   303.2
   548.7
   614.1
   483.2
   237.8
   180.8
   349.1
   617.4
   574.4
   637.7
   653.2
   356.8
   175.6
   341.4
   635.6
   631.2
   647.4
   632.0
     0.0
   175.6
   253.9
   474.4
   525.6
   423.2
   391.3
   327.8
   218.1
   621.6
   684.5
   558.8
   180.8
     0.0
   201.1
   544.1
   553.8
   565.2
   505.5
   274.4
   189.8
   120.3
   435.6
   536.3
   334.8
   274.4
   303.2
   472.3
   627.3
   640.4
   614.1
   152.2
   455.9
    34.5
   452.3
   468.1
   344.3
   590.4
   455.9
    56.5
    34.5
   468.1
   468.1
   102.4
    59.6
   348.8
   532.8
   559.3
   506.3
   209.0
    73.2
   221.0
   504.7
   504.7
   274.4
   120.3
   190.2
   483.2
   483.2
   448.5
   349.1
   472.3
   748.6
   759.0
   729.3
   762.0
   272.2
   116.3
   396.8
   571.4
   561.4
   560.8
   598.1
   571.7
   272.6
   311.2
   618.9
   699.7
   554.2
   631.7
   209.0
    56.5
    73.2
   462.6
   462.6
   132.5
   330.4
   162.8
   563.3
   563.3
   152.2
   565.9
   455.9
   637.5
   725.1
   590.4
   602.0
   503.3
   178.2
   101.1
   593.5
   584.7
   602.2
    26.1
   105.6
    56.6
   446.4
   428.8
   464.0
   515.7
   272.6
   571.7
   752.5
   631.7
   873.3
   133.9
   516.9
   161.6
   567.1
   557.4
   576.9
   350.0
   419.6
   584.4
   713.6
   671.0
   776.6
   680.4
   132.5
   289.6
   330.4
   590.9
   657.5
   563.3
   539.8
   230.9
    73.2
   225.8
   505.7
   504.3
   585.4
   383.5
   345.9
   545.7
   484.0
   752.7
   840.8
   666.9
   732.4
   234.3
   503.3
   351.0
   707.3
   645.7
   768.9
   234.3
   351.0
   565.9
   696.9
   696.9
   448.5
   280.6
   237.8
   599.4
   553.6
   645.1
   413.9
   472.1
    39.4
   584.4
   527.9
   692.4
   534.7
    69.3
   413.9
    39.4
   540.6
   534.7
   546.5
   133.9
   105.6
    76.2
   445.1
   445.1
   545.7
   254.8
   484.0
   767.8
   694.8
   840.8
   181.5
   345.9
   484.0
   619.7
   572.5
   666.9
   175.8
   303.1
   413.9
   624.8
   570.7
   679.0
   351.0
   225.8
   565.9
   613.6
   610.9
   696.9
   552.7
   427.1
   167.0
   116.3
   556.4
   537.0
   575.7
   159.9
   414.6
    92.7
   511.6
   513.2
   510.1
   159.9
    84.2
   414.6
   537.1
   513.2
   581.5
   525.0
   554.4
   545.7
   345.9
   784.4
   859.3
   732.4
   764.9
   175.8
    84.3
   464.9
   470.7
   424.2
   517.2
   181.5
    84.2
   180.2
   482.0
   440.5
   523.5
   219.2
   537.6
   154.3
   614.4
   614.4
   239.9
   154.3
   143.2
   568.1
   586.8
   549.5
   317.8
   537.6
   219.2
   674.1
   733.8
   614.4
   584.4
   419.6
   709.2
   826.9
   801.8
   776.6
   904.1
   317.8
   419.6
   537.6
   732.8
   770.6
   733.8
   704.0
   239.9
   219.2
   154.3
   604.8
   586.8
   622.8
   322.7
   239.9
   143.2
   559.4
   559.4
   449.2
   275.7
   435.1
   728.5
   728.5
   322.7
   677.6
   439.9
   775.0
   835.4
   714.6
     0.0
   175.6
     0.0
   423.2
   423.2
   332.2
   341.4
   175.6
   625.5
   671.6
   631.2
   581.9
     0.0
   187.6
   175.6
   436.0
   436.0
   252.3
   187.6
     0.0
   494.2
   494.2
   475.3
   351.0
   503.3
   752.0
   722.4
   768.9
   753.4
   461.9
   225.8
   351.0
   600.9
   649.1
   552.7
   396.8
   167.0
   378.3
   647.9
   571.9
   723.9
    85.2
     0.0
     0.0
   219.7
   219.7
    95.6
    85.2
   180.8
   412.5
   469.5
   355.4
   412.3
   327.8
   391.3
   733.4
   721.5
   684.5
   773.5
   427.1
   116.3
   102.4
   503.1
   469.3
   537.0
   211.6
   391.3
   155.1
   588.3
   589.8
   586.8
   396.8
   116.3
   167.0
   566.4
   560.8
   571.9
   476.6
   472.3
   303.2
   725.9
   811.5
   640.4
   286.1
   211.6
   318.9
   568.1
   548.4
   587.7
   286.1
   337.2
   211.6
   628.3
   628.3
   294.7
   272.6
   515.7
   667.4
   642.8
   691.9
   163.9
   294.7
   387.6
   627.8
   627.8
   214.3
   427.1
   542.5
   647.8
   565.5
   746.7
   561.1
   225.8
    56.5
   455.9
   556.5
   556.5
   225.8
   455.9
   565.9
   624.3
   725.1
   556.5
   610.9
   294.7
   443.5
   485.9
   723.8
   819.4
   628.2
   303.8
   515.7
   221.0
   636.0
   685.2
   662.1
   590.9
   517.6
   231.2
   179.4
   613.6
   613.6
   209.0
   515.7
   571.7
   762.8
   873.3
   652.3
    78.6
   503.3
    56.6
   526.0
   526.0
   330.6
   221.5
   413.9
   666.4
   666.4
   241.8
    69.3
   545.7
   526.6
   451.0
   560.8
   649.5
   241.8
   554.4
   316.0
   621.2
   686.4
   555.9
   105.2
   475.3
   503.3
   636.1
   549.7
   722.4
   256.5
   443.2
   571.3
   675.7
   584.2
   791.8
   662.6
    96.6
   303.8
   221.0
   489.9
   389.0
   590.9
   272.1
   378.7
   617.1
   697.3
   697.3
   256.5
   296.5
   133.9
   575.1
   642.1
   452.5
   553.8
   447.7
   161.6
   516.9
   663.1
   777.7
   576.9
   611.2
   330.6
   303.1
   447.7
   673.0
   685.3
   660.7
   525.1
   447.7
   303.1
   761.2
   837.0
   685.3
   331.2
   161.6
   447.7
   663.7
   611.2
   716.2
   412.3
   482.2
   476.6
   803.3
   841.9
   746.9
   798.6
   286.1
   540.7
   364.7
   679.5
   648.0
   711.0
   181.5
   180.2
   345.9
   546.6
   569.6
   523.5
    99.9
    84.2
   159.9
   527.5
   525.0
   529.9
   241.8
   316.0
    84.3
   555.9
   555.9
   514.9
   332.2
   252.3
   628.3
   601.7
   654.9
    99.9
   180.2
    84.2
   432.9
   432.9
   430.2
    99.9
   211.3
   589.1
   527.1
   651.1
   348.0
   219.2
   239.9
   639.2
   655.6
   622.8
   211.3
    99.9
   159.9
   528.5
   529.9
   527.1
   149.7
   275.7
   129.7
   525.4
   511.3
   539.5
   477.7
   584.4
   709.2
   837.1
   904.1
   770.0
   449.2
   508.8
   554.4
   819.2
   857.5
   759.2
   822.0
   430.2
   129.7
    99.9
   518.6
   518.6
   670.8
   330.4
   443.5
   770.0
   742.0
   745.2
   821.0
   396.8
   378.3
   318.9
   682.3
   669.9
   623.8
   723.9
   317.8
   521.7
   648.8
   749.1
   659.7
   838.4
   348.0
   479.6
   521.7
   790.2
   825.2
   755.3
   677.6
   503.3
   442.4
   813.4
   807.5
   798.4
   842.9
   677.6
   442.4
   439.9
   804.4
   757.9
   835.4
   842.9
   514.9
   608.6
   332.2
   751.7
   848.4
   654.9
     0.0
   252.3
     0.0
   580.3
   580.3
   442.4
   766.1
   439.9
   793.3
   828.6
   757.9
   299.2
   514.9
   159.5
   602.1
   577.7
   626.6
   448.5
   237.8
   349.1
   693.7
   759.0
   653.2
   645.1
    95.6
     0.0
     0.0
   438.2
   438.2
   130.2
    95.6
   237.8
   438.7
   465.8
   411.5
   412.3
   476.6
   303.2
   746.9
   746.9
   517.6
   472.3
   476.6
   808.5
   804.4
   811.5
   808.8
   378.3
   540.7
   318.9
   692.4
   669.9
   714.9
    84.9
    96.6
   221.0
   338.2
   287.5
   389.0
   443.5
   330.4
   485.9
   766.3
   708.7
   819.4
   745.2
   286.1
   482.2
   337.2
   643.4
   628.3
   658.5
   429.1
   476.6
   482.2
   815.6
   801.9
   841.9
   794.2
   116.2
    96.6
   289.4
   471.2
   471.2
   132.5
   185.8
   289.6
   503.6
   467.4
   539.8
   272.1
   542.5
   338.0
   666.9
   637.8
   708.5
   650.2
    84.9
   230.9
    96.6
   387.5
   387.5
   162.8
   215.8
   542.5
   608.8
   608.8
   139.4
   461.9
   475.3
   710.3
   837.1
   529.1
   610.2
   303.8
   443.5
   515.7
   751.6
   815.8
   685.2
   730.0
   364.7
   429.1
   482.2
   774.5
   754.7
   794.2
   774.3
   256.5
   571.3
   139.4
   596.9
   531.2
   662.6
   546.8
   798.2
   702.4
   964.4
   916.9
  1011.9
   461.9
   351.0
   475.3
   795.2
   753.4
   837.1
   139.4
   475.3
   105.2
   529.1
   529.1
   116.2
   303.8
    96.6
   510.4
   510.4
   474.0
   694.0
   364.7
   816.3
   816.3
   643.0
   368.1
   225.8
   700.0
   667.9
   688.5
   755.0
   111.5
    84.3
   300.5
   490.7
   490.7
   193.9
   331.2
   228.4
   547.7
   525.2
   570.2
   256.5
   139.4
   105.2
   531.2
   531.2
   496.4
   670.8
   679.1
   882.6
   832.8
   954.7
   873.2
   313.7
   443.5
   303.8
   679.5
   737.0
   730.0
   593.6
   316.0
   300.5
    84.3
   543.0
   490.7
   595.2
   673.4
   447.7
   525.1
   864.1
   886.1
   837.0
   888.6
   673.4
   331.2
   447.7
   801.2
   886.1
   716.2
   111.5
   300.5
   142.8
   484.9
   484.9
   296.8
   368.1
   710.2
   691.8
   725.0
   658.6
   449.2
   345.9
   275.7
   687.8
   720.1
   655.6
   129.7
   180.2
    99.9
   446.5
   460.2
   432.9
   508.8
   773.8
   360.2
   737.3
   622.9
   851.8
   391.2
   338.0
   533.9
   685.3
   665.1
   686.1
   710.6
   368.1
   135.9
   116.2
   566.7
   566.7
   477.7
   256.4
   584.4
   718.5
   666.9
   770.0
   317.8
   669.1
   715.5
   931.5
   931.5
   149.7
   273.6
   435.1
   633.0
   677.3
   588.8
   416.0
   298.0
   556.3
   721.9
   641.0
   802.8
   910.4
   669.1
   648.8
   970.0
  1035.6
   909.7
   995.3
   508.8
   360.2
   316.0
   627.0
   631.1
   622.9
   377.0
   669.1
   579.2
   833.3
   770.6
   896.0
   317.8
   648.8
   669.1
   909.7
   909.7
   479.6
   648.8
   521.7
   841.6
   825.2
   838.4
   865.5
   546.8
   702.4
   648.8
   952.0
   994.6
   909.5
   377.0
   715.5
   669.1
   829.5
   770.6
   931.5
   774.9
    87.4
   252.3
     0.0
   507.3
   434.4
   580.3
   241.5
   423.8
   442.4
   758.1
   758.1
   299.2
   442.4
   503.3
   749.6
   798.4
   700.9
   514.9
    87.4
   159.5
   558.0
   577.7
   538.4
     0.0
    87.4
     0.0
   392.7
   392.7
   257.7
    87.4
     0.0
   415.2
   437.8
   392.7
   484.0
   571.3
   443.2
   780.9
   749.3
   791.8
   806.2
   617.1
   540.7
   378.3
   783.6
   872.1
   714.9
   739.8
   141.7
   280.6
   448.5
   528.4
   493.9
   563.0
    50.4
   130.2
   102.6
   443.3
   442.8
   443.8
   130.2
     0.0
     0.0
   514.3
   514.3
   179.4
   141.7
   448.5
   576.0
   589.0
   563.0
   141.7
   433.4
   102.6
   516.5
   499.4
   533.5
   508.9
   476.6
   429.1
   792.5
   817.0
   801.9
   750.5
   215.8
   338.0
   542.5
   658.6
   608.8
   708.5
   474.0
   540.7
   617.1
   848.7
   838.1
   872.1
   838.7
   670.8
   286.7
   330.4
   688.4
   634.7
   742.0
   267.6
   533.9
   338.0
   633.4
   580.8
   686.1
   378.7
   549.2
   617.1
   774.8
   852.2
   697.3
   215.8
   267.6
   338.0
   580.8
   580.8
   694.0
   429.1
   364.7
   819.9
   865.5
   774.3
   215.8
   286.7
   267.6
   575.1
   562.0
   588.2
   643.0
   225.8
   461.9
   668.8
   649.1
   688.5
   679.1
   670.8
   443.5
   887.8
   821.0
   954.7
   116.2
   313.7
   303.8
   552.0
   510.4
   593.6
   313.7
   679.1
   443.5
   747.0
   737.0
   757.1
   673.4
   525.1
   602.7
   879.9
   842.1
   888.6
   917.5
   173.5
   425.6
   139.4
   562.8
   562.8
   425.6
   461.9
   139.4
   646.4
   768.7
   610.2
   562.8
   643.0
   599.6
   710.2
   944.3
   960.4
   928.6
   939.7
   369.7
   496.4
   466.0
   771.8
   730.2
   813.3
   474.0
   549.2
   742.4
   884.9
   833.1
   936.7
   356.9
   442.4
   423.8
   746.0
   766.9
   758.1
   713.9
   228.4
   484.0
   443.2
   658.2
   567.1
   749.3
   268.7
   559.9
   669.6
   741.3
   639.9
   842.6
   571.3
   173.5
   139.4
   594.6
   594.6
   599.6
   664.3
   710.2
   948.8
   969.6
   960.4
   921.3
   360.2
   142.8
   300.5
   564.1
   643.4
   484.9
   352.9
   571.3
   484.0
   756.8
   727.9
   806.2
   736.8
   308.5
   425.6
   173.5
   621.2
   621.2
   269.5
   111.5
   142.8
   468.2
   468.2
   360.2
   300.5
   316.0
   623.6
   595.2
   643.4
   631.1
   673.4
   524.2
   669.6
   860.1
   875.0
   831.3
   885.3
   296.8
   710.2
   664.3
   969.6
   969.6
   571.3
   429.1
   694.0
   862.5
   827.7
   865.5
   917.1
   269.5
   142.8
   170.8
   480.9
   468.2
   493.6
   149.7
   435.1
   275.7
   564.1
   588.8
   539.5
   416.0
   256.4
   298.0
   641.0
   641.0
   821.6
   360.2
   773.8
  1072.9
  1072.9
   262.1
   142.8
   360.2
   658.6
   658.6
   257.7
   159.5
    87.4
   474.2
   510.6
   437.8
   658.4
   435.1
   273.6
   758.4
   839.6