# vtk DataFile Version 3.0
Landscape
ASCII
DATASET UNSTRUCTURED_GRID
POINTS       1883 float
           0.000           0.000           0.000
        1600.000           0.000           0.000
        3200.000           0.000           0.000
        4800.000           0.000           0.000
        6400.000           0.000           0.000
        8000.000           0.000           0.000
        9600.000           0.000           0.000
       11200.000           0.000           0.000
       12800.000           0.000           0.000
       14400.001           0.000           0.000
       16000.000           0.000           0.000
       17600.000           0.000           0.000
       19200.000           0.000           0.000
       20799.999           0.000           0.000
       22400.000           0.000           0.000
       24000.001           0.000           0.000
       25599.999           0.000           0.000
       27200.000           0.000           0.000
       28800.001           0.000           0.000
       30400.000           0.000           0.000
       32000.000           0.000           0.000
       33599.999           0.000           0.000
       35200.000           0.000           0.000
       36800.001           0.000           0.000
       38399.999           0.000           0.000
       40000.000           0.000           0.000
       41599.998           0.000           0.000
       43200.002           0.000           0.000
       44800.000           0.000           0.000
       46399.999           0.000           0.000
       48000.002           0.000           0.000
       49600.000           0.000           0.000
       51199.999           0.000           0.000
       52800.002           0.000           0.000
       54400.001           0.000           0.000
       55999.999           0.000           0.000
       57600.002           0.000           0.000
       59200.001           0.000           0.000
       60799.999           0.000           0.000
       62399.998           0.000           0.000
       64000.001           0.000           0.000
       65599.999           0.000           0.000
       67199.998           0.000           0.000
       68800.001           0.000           0.000
       70400.000           0.000           0.000
       71999.998           0.000           0.000
       73600.001           0.000           0.000
       75200.000           0.000           0.000
       76799.998           0.000           0.000
       78400.002           0.000           0.000
       80000.000           0.000           0.000
           0.000        1600.000           0.000
        1820.535        1836.129         161.874
        4436.497        1560.645         206.005
        8231.839        1585.959         182.645
       11192.297        1979.624         239.554
       14535.388        1860.001         133.130
       17224.315        1919.917         232.780
       20899.237        1802.853         229.306
       23731.335        1792.943         187.968
       27507.238        1603.221         188.166
       30065.602        1613.570         303.966
       33371.579        1994.991         143.707
       37099.539        1414.823         243.855
       38196.713        1837.356         134.564
       41840.942        1855.796         219.204
       43418.644        1867.336         132.108
       46734.950        1319.882         273.420
       49975.028        1831.460         323.528
       52954.322        1538.422         229.460
       55816.240        1531.934         195.732
       59004.449        1641.677         195.227
       60471.826        1510.939         221.407
       63784.513        1656.536         315.825
       67301.210        1771.228         235.985
       70381.695        1920.216         296.219
       72217.113        1448.806         145.219
       75069.462        1621.662         199.894
       78696.327        1722.356         206.188
       80000.000        1600.000           0.000
           0.000        3200.000           0.000
        3274.399        3217.174         341.434
        5160.666        3300.186         479.950
        6043.012        3262.445         215.973
        9502.865        3552.908         500.583
       11056.006        2840.019         500.583
       14606.628        2840.755         200.445
       17562.634        3511.308         262.168
       18833.142        3539.080         149.678
       22026.411        2868.051         238.802
       25600.029        2863.835         230.582
       27192.156        3106.980         500.236
       30375.600        2888.881         500.236
       33224.678        2857.386         224.724
       36841.038        3085.085         248.607
       40238.304        3524.647         261.269
       43557.179        3128.631         209.626
       46228.872        2830.415         238.022
       48146.017        3166.706         299.580
       51153.215        2952.745         220.404
       53124.514        2981.904         500.022
       56001.007        3429.944         500.295
       59307.581        3225.477         500.260
       62124.444        3154.870         253.074
       64132.610        2904.590         500.430
       67439.924        3451.420         500.247
       68998.763        3472.006         500.368
       72219.436        2879.026         247.815
       75532.535        3132.944         500.512
       78652.387        3551.841         174.906
       80000.000        3200.000           0.000
           0.000        4800.000           0.000
        1400.060        4439.660         185.531
        4786.648        4655.285         499.569
        8308.484        5116.135         500.429
       11454.778        4403.585         500.616
       14098.429        4923.032         500.261
       17912.789        5043.475         292.276
       20446.875        4859.061         282.622
       24108.597        4895.159         500.719
       27234.832        4431.193         500.258
       28696.423        4449.033         500.236
       32196.694        4589.490         500.516
       33867.228        4797.771         500.516
       34933.129        4760.558         500.516
       38067.139        5053.208         390.860
       41605.852        4581.133         397.880
       44854.687        5021.321         500.145
       48175.269        4416.823         500.169
       51163.202        5122.950         500.164
       54186.876        4703.411         500.274
       56317.818        4828.699         500.274
       59169.326        5108.954         500.260
       62536.999        4516.819         500.430
       65848.099        4445.450         500.247
       68694.276        4766.024         500.376
       71946.222        4752.098         500.153
       75433.121        5067.460         500.490
       78033.243        4664.320         206.854
       80000.000        4800.000           0.000
           0.000        6400.000           0.000
        2841.623        6773.290         222.558
        6245.685        6376.243         500.441
        7744.385        6030.238         500.429
       11368.686        6592.994         500.354
       14270.010        6704.916         500.312
       17330.427        6370.488         500.483
       19571.144        6573.041         500.473
       22641.152        6627.002         500.725
       23763.572        6012.529         500.719
       27463.089        6427.221         500.235
       30273.002        6504.167         500.235
       33884.178        6077.220         500.516
       35390.886        6255.305         500.516
       38075.664        6205.118         500.383
       40048.604        6389.405         500.381
       43255.311        6307.072         500.221
       46126.564        6231.346         500.145
       48285.057        6596.744         500.144
       51294.080        6157.575         500.162
       54250.249        6543.358         500.284
       57921.865        6224.397         500.343
       59558.312        6004.572         500.260
       62425.662        6132.109         500.430
       65724.696        6341.122         500.249
       68956.079        6674.843         500.445
       72380.520        6490.972         500.212
       75318.037        6459.550         500.490
       78160.955        6114.578         199.848
       80000.000        6400.000           0.000
           0.000        8000.000           0.000
        3576.129        8217.635         206.961
        5061.593        7652.754         306.592
        8105.944        7856.844         500.429
       11121.498        7830.817         500.354
       14531.786        8256.985         500.238
       16036.950        7761.051         500.307
       19087.239        8020.414         500.473
       22626.171        7850.784         500.571
       25653.785        8135.625         500.423
       28733.316        8014.857         500.235
       30647.917        7622.140         500.235
       31669.813        8123.016         500.235
       35544.551        8083.612         500.540
       38771.621        7743.567         500.345
       41941.639        8315.419         500.300
       44649.095        8053.831         500.166
       48005.993        8300.872         500.145
       51584.272        8303.210         500.314
       52951.115        7723.006         500.314
       55834.828        8389.314         500.320
       58839.904        7674.993         500.260
       60484.772        8202.290         500.260
       63784.723        8145.830         500.444
       67326.420        8175.747         500.445
       68571.734        8073.207         500.445
       72193.925        8373.058         500.558
       73714.578        7878.720         500.506
       77044.523        8185.581         244.799
       78448.742        7636.455         134.921
       80000.000        8000.000           0.000
           0.000        9600.000           0.000
[...]
POINT_DATA       1883
SCALARS height float 1
LOOKUP_TABLE default
     0.0
     0.0
     0.0
     0.0
     0.0
     0.0
     0.0
     0.0
     0.0
     0.0
     0.0
     0.0
     0.0
     0.0
     0.0
     0.0
     0.0
     0.0
     0.0
     0.0
     0.0
     0.0
     0.0
     0.0
     0.0
     0.0
     0.0
     0.0
     0.0
     0.0
     0.0
     0.0
     0.0
     0.0
     0.0
     0.0
     0.0
     0.0
     0.0
     0.0
     0.0
     0.0
     0.0
     0.0
     0.0
     0.0
     0.0
     0.0
     0.0
     0.0
     0.0
     0.0
   161.9
   206.0
   182.6
   239.6
   133.1
   232.8
   229.3
   188.0
   188.2
   304.0
   143.7
   243.9
   134.6
   219.2
   132.1
   273.4
   323.5
   229.5
   195.7
   195.2
   221.4
   315.8
   236.0
   296.2
   145.2
   199.9
   206.2
     0.0
     0.0
   341.4
   480.0
   216.0
   500.6
   500.6
   200.4
   262.2
   149.7
   238.8
   230.6
   500.2
   500.2
   224.7
   248.6
   261.3
   209.6
   238.0
   299.6
   220.4
   500.0
   500.3
   500.3
   253.1
   500.4
   500.2
   500.4
   247.8
   500.5
   174.9
     0.0
     0.0
   185.5
   499.6
   500.4
   500.6
   500.3
   292.3
   282.6
   500.7
   500.3
   500.2
   500.5
   500.5
   500.5
   390.9
   397.9
   500.1
   500.2
   500.2
   500.3
   500.3
   500.3
   500.4
   500.2
   500.4
   500.2
   500.5
   206.9
     0.0
     0.0
   222.6
   500.4
   500.4
   500.4
   500.3
   500.5
   500.5
   500.7
   500.7
   500.2
   500.2
   500.5
   500.5
   500.4
   500.4
   500.2
   500.1
   500.1
   500.2
   500.3
   500.3
   500.3
   500.4
   500.2
   500.4
   500.2
   500.5
   199.8
     0.0
     0.0
   207.0
   306.6
   500.4
   500.4
   500.2
   500.3
   500.5
   500.6
   500.4
   500.2
   500.2
   500.2
   500.5
   500.3
   500.3
   500.2
   500.1
   500.3
   500.3
   500.3
   500.3
   500.3
   500.4
   500.4
   500.4
   500.6
   500.5
   244.8
   134.9
     0.0
     0.0
   225.4
   500.4
   500.2
   500.2
   500.3
   500.4
   500.4
   500.4
   500.4
   500.2
   500.2
   500.2
   500.3
   500.3
   500.3
   500.3
   500.2
   500.2
   500.3
   500.3
   500.3
   500.3
   500.4
   500.4
   500.4
   500.4
   500.4
   500.3
   244.6
     0.0
     0.0
   321.6
   500.3
   500.2
   500.3
   500.3
   500.4
   500.4
   500.4
   500.3
   500.3
   500.3
   500.3
   500.3
   500.3
   500.3
   500.2
   500.3
   500.3
   500.4
   500.3
   500.3
   500.3
   500.3
   500.3
   500.5
   500.4
   500.4
   500.4
   500.3
   198.9
     0.0
     0.0
   359.0
   500.2
   500.2
   500.2
   500.3
   500.3
   500.3
   500.2
   500.4
   500.4
   500.3
   500.3
   500.3
   500.3
   500.3
   500.5
   500.3
   500.3
   500.3
   500.3
   500.2
   500.2
   500.3
   500.3
   500.3
   500.4
   500.3
   500.4
   500.4
   500.3
   500.3
   296.2
     0.0
     0.0
   145.5
   281.4
   500.2
   500.2
   500.3
   500.3
   500.2
   500.2
   500.4
   500.4
   500.0
   500.3
   500.5
   500.5
   500.5
   500.3
   500.3
   500.2
   500.2
   500.2
   500.3
   500.4
   500.4
   500.3
   500.3
   500.4
   500.3
   329.9
     0.0
     0.0
   226.6
   500.3
   500.2
   500.3
   500.4
   500.2
   500.4
   500.4
   500.4
   500.4
   500.3
   500.3
   500.3
   500.3
   500.6
   500.3
   500.4
   500.2
   500.2
   500.3
   500.3
   500.3
   500.3
   500.3
   500.3
   500.2
   500.2
   500.2
   242.1
     0.0
     0.0
   311.5
   500.4
   500.4
   500.3
   500.3
   500.3
   500.4
   500.4
   500.4
   500.4
   500.3
   500.3
   500.3
   500.3
   500.2
   500.3
   500.3
   500.3
   500.2
   500.2
   500.3
   500.3
   500.3
   500.3
   500.3
   500.2
   500.5
   215.3
     0.0
     0.0
   328.5
   500.4
   500.4
   500.4
   500.5
   500.3
   500.3
   500.4
   500.4
   500.4
   500.3
   500.3
   500.3
   500.3
   500.2
   500.2
   500.3
   500.3
   500.3
   500.2
   500.3
   500.3
   500.3
   500.4
   500.3
   500.2
   500.5
   320.5
     0.0
     0.0
   224.6
   500.4
   500.5
   500.5
   500.5
   500.3
   500.3
   500.4
   500.4
   500.4
   500.4
   500.3
   500.3
   500.4
   500.2
   500.4
   500.3
   500.3
   500.3
   500.3
   500.2
   500.3
   500.3
   500.3
   500.3
   500.2
   500.5
   500.5
   208.2
     0.0
     0.0
   251.4
   500.6
   500.4
   500.5
   500.3
   500.3
   500.4
   500.4
   500.4
   500.3
   500.5
   500.3
   500.3
   500.5
   500.4
   500.1
   500.1
   500.4
   500.3
   500.1
   500.1
   500.5
   500.3
   500.3
   500.3
   500.3
   500.5
   500.5
   177.7
     0.0
     0.0
   249.5
   500.6
   500.4
   500.4
   500.5
   500.3
   500.3
   500.4
   500.4
   500.3
   500.3
   500.3
   500.3
   500.3
   500.4
   500.2
   500.3
   500.3
   500.3
   500.4
   500.4
   500.1
   500.1
   500.2
   500.4
   500.3
   500.3
   500.3
   500.3
   197.3
     0.0
     0.0
   230.8
   500.5
   500.4
   500.4
   500.5
   500.5
   500.3
   500.6
   500.6
   500.3
   500.3
   500.3
   500.5
   500.3
   500.3
   500.2
   500.3
   500.3
   500.3
   500.2
   500.4
   500.1
   500.1
   500.4
   500.4
   500.3
   500.3
   500.3
   500.3
   199.4
     0.0
     0.0
   190.5
   500.5
   500.5
   500.3
   500.5
   500.3
   500.3
   500.2
   500.6
   500.4
   500.3
   500.3
   500.5
   500.3
   500.4
   500.3
   500.3
   500.3
   500.2
   500.2
   500.1
   500.1
   500.5
   500.3
   500.3
   500.3
   500.3
   338.1
     0.0
     0.0
   296.4
   325.6
   500.3
   500.3
   500.3
   500.3
   500.2
   500.4
   500.4
   500.3
   500.3
   500.5
   500.4
   500.4
   500.2
   500.2
   500.3
   500.4
   500.1
   500.1
   500.1
   500.3
   500.2
   500.2
   500.2
   500.3
   172.8
     0.0
     0.0
   323.2
   276.5
   500.3
   500.3
   500.3
   500.3
   500.3
   500.2
   500.4
   500.4
   500.3
   500.5
   500.4
   500.3
   500.3
   500.2
   500.5
   500.3
   500.1
   500.3
   500.3
   500.1
   500.3
   500.3
   500.2
   500.3
   500.3
   500.3
   274.5
     0.0
     0.0
   160.1
   284.0
   500.4
   500.3
   500.3
   500.2
   500.2
   500.2
   500.2
   500.3
   500.3
   500.3
   500.5
   500.5
   500.3
   500.3
   500.3
   500.4
   500.3
   500.3
   500.3
   500.3
   500.3
   500.3
   500.4
   500.3
   500.3
   500.2
   500.3
   222.0
     0.0
     0.0
   174.3
   500.2
   500.3
   500.3
   500.3
   500.3
   500.4
   500.4
   500.3
   500.3
   500.3
   500.3
   500.5
   500.3
   500.3
   500.4
   500.4
   500.4
   500.4
   500.3
   500.4
   500.3
   500.3
   500.3
   500.3
   500.3
   500.2
   500.3
   161.2
     0.0
     0.0
   255.0
   500.2
   500.3
   500.3
   500.3
   500.4
   500.4
   500.3
   500.2
   500.2
   500.5
   500.5
   500.3
   500.4
   500.4
   500.4
   500.4
   500.3
   500.3
   500.3
   500.3
   500.3
   500.4
   500.3
   500.4
   500.4
   500.3
   500.3
   225.3
     0.0
     0.0
   287.2
   500.3
   500.4
   500.3
   500.4
   500.3
   500.4
   500.3
   500.2
   500.2
   500.5
   500.5
   500.3
   500.4
   500.4
   500.3
   500.4
   500.4
   500.3
   500.3
   500.4
   500.3
   500.1
   500.4
   500.4
   500.3
   500.3
   185.3
     0.0
     0.0
   226.4
   500.3
   500.3
   500.3
   500.4
   500.3
   500.2
   500.3
   500.4
   500.4
   500.5
   500.3
   500.5
   500.2
   500.3
   500.4
   500.4
   500.3
   500.4
   500.4
   500.4
   500.1
   500.4
   500.4
   500.3
   500.2
   500.2
     0.0
     0.0
   245.1
   500.3
   500.3
   500.5
   500.4
   500.4
   500.3
   500.3
   500.4
   500.4
   500.4
   500.5
   500.4
   500.5
   500.4
   500.4
   500.4
   500.2
   500.4
   500.2
   500.4
   500.4
   500.4
   500.4
   500.3
   500.3
   500.4
   500.4
   500.2
   193.3
     0.0
     0.0
   320.6
   500.3
   500.3
   500.3
   500.4
   500.3
   500.3
   500.3
   500.3
   500.3
   500.4
   500.5
   500.4
   500.4
   500.4
   500.4
   500.2
   500.2
   500.2
   500.2
   500.4
   500.4
   500.4
   500.3
   500.3
   500.5
   500.5
   500.3
   186.0
     0.0
     0.0
   169.0
   301.9
   500.3
   500.3
   500.5
   500.4
   500.3
   500.3
   500.3
   500.4
   500.5
   500.4
   500.4
   500.4
   500.5
   500.3
   500.3
   500.3
   500.3
   500.3
   500.3
   500.3
   500.4
   500.4
   500.5
   500.4
   500.5
   363.9
   276.5
     0.0
     0.0
   229.3
   500.2
   500.2
   500.5
   500.4
   500.3
   500.3
   500.3
   500.5
   500.5
   500.5
   500.4
   500.4
   500.4
   500.4
   500.4
   500.3
   500.3
   500.4
   500.3
   500.3
   500.3
   500.3
   500.3
   500.3
   500.3
   500.4
   500.3
   369.8
   277.3
   161.8
     0.0
     0.0
   103.9
   500.2
   500.2
   500.5
   500.5
   500.3
   500.3
   500.3
   500.3
   500.5
   500.5
   500.4
   500.4
   500.4
   500.4
   500.4
   500.3
   500.3
   500.3
   500.3
   500.3
   500.3
   500.4
   500.3
   500.3
   500.3
   500.3
   500.3
   500.3
   500.3
   241.0
     0.0
     0.0
   249.0
   500.0
   500.3
   500.5
   500.3
   500.4
   500.4
   500.5
   500.4
   500.4
   500.4
   500.5
   500.3
   500.3
   500.3
   500.4
   500.5
   500.4
   500.2
   500.2
   500.4
   500.3
   500.2
   500.3
   500.3
   231.7
     0.0
     0.0
   178.9
   500.4
   500.3
   500.3
   500.2
   500.3
   500.4
   500.4
   500.4
   500.3
   500.5
   500.4
   500.2
   500.2
   500.3
   500.3
   500.3
   500.3
   500.4
   500.4
   500.4
   500.5
   500.2
   500.4
   500.3
   500.1
   500.4
   500.3
   311.1
     0.0
     0.0
   266.8
   500.3
   500.3
   500.3
   500.2
   500.3
   500.4
   500.4
   500.4
   500.3
   500.4
   500.4
   500.4
   500.3
   500.3
   500.3
   500.3
   500.4
   500.4
   500.4
   500.5
   500.1
   500.2
   500.3
   500.1
   500.3
   500.3
   257.9
     0.0
     0.0
   129.2
   500.3
   500.3
   500.3
   500.3
   500.3
   500.1
   500.1
   500.3
   500.4
   500.4
   500.4
   500.4
   500.4
   500.4
   500.2
   500.3
   500.5
   500.4
   500.4
   500.2
   500.3
   500.3
   500.3
   500.3
   500.3
   500.3
   500.3
   500.2
   298.3
     0.0
     0.0
   244.8
   500.3
   500.4
   500.3
   500.3
   500.1
   500.1
   500.2
   500.3
   500.4
   500.4
   500.4
   500.4
   500.3
   500.3
   500.4
   500.3
   500.4
   500.4
   500.5
   500.2
   500.3
   500.2
   500.3
   500.3
   500.3
   363.5
   206.1
   102.7
     0.0
     0.0
   260.6
   500.4
   500.4
   500.3
   500.3
   500.1
   500.2
   500.2
   500.3
   500.4
   500.4
   500.5
   500.4
   500.3
   500.3
   500.3
   500.4
   500.3
   500.4
   500.1
   500.3
   500.3
   500.3
   500.2
   500.3
   500.3
   500.4
   315.8
   270.5
     0.0
     0.0
   206.1
   500.4
   500.4
   500.4
   500.3
   500.2
   500.1
   500.2
   500.2
   500.3
   500.4
   500.2
   500.5
   500.3
   500.3
   500.4
   500.3
   500.1
   500.2
   500.3
   500.3
   500.3
   500.4
   500.3
   500.3
   500.3
   400.3
   236.7
     0.0
     0.0
   297.1
   500.4
   500.4
   500.3
   500.3
   500.1
   500.2
   500.3
   500.3
   500.4
   500.2
   500.3
   500.3
   500.2
   500.2
   500.3
   500.2
   500.2
   500.2
   500.2
   500.3
   500.3
   500.4
   500.4
   500.6
   500.3
   500.3
   500.5
   243.7
     0.0
     0.0
   147.3
   500.5
   500.4
   500.4
   500.4
   500.3
   500.3
   500.2
   500.2
   500.1
   500.2
   500.2
   500.2
   500.2
   500.3
   500.2
   500.2
   500.2
   500.3
   500.2
   500.1
   500.3
   500.4
   500.4
   500.6
   500.3
   500.3
   500.6
   322.0
   280.9
     0.0
     0.0
   273.4
   500.4
   500.4
   500.4
   500.3
   500.4
   500.2
   500.2
   500.1
   500.2
   500.2
   500.2
   500.2
   500.2
   500.4
   500.4
   500.4
   500.4
   500.3
   500.3
   500.1
   500.4
   500.3
   500.4
   500.3
   500.3
   500.4
   258.1
   127.9
     0.0
     0.0
   129.6
   322.2
   500.4
   500.4
   500.3
   500.3
   500.4
   500.2
   500.2
   500.2
   500.2
   500.5
   500.2
   500.2
   500.2
   500.4
   500.4
   500.4
   500.3
   500.3
   500.1
   500.3
   500.3
   500.3
   500.3
   500.5
   500.4
   500.4
   500.4
   228.6
     0.0
     0.0
   211.5
   500.4
   500.4
   500.4
   500.3
   500.4
   500.2
   500.2
   500.2
   500.5
   500.5
   500.2
   500.2
   500.4
   500.4
   500.4
   500.3
   500.3
   500.3
   500.2
   500.3
   500.3
   500.3
   500.3
   500.5
   500.5
   500.4
   500.4
   270.7
     0.0
     0.0
   205.2
   371.0
   500.4
   500.4
   500.3
   500.3
   500.3
   500.2
   500.2
   500.2
   500.5
   500.5
   500.5
   500.3
   500.3
   500.4
   500.4
   500.5
   500.3
   500.3
   500.3
   500.3
   500.4
   500.4
   500.4
   500.4
   500.4
   500.5
   500.4
   168.0
     0.0
     0.0
   237.1
   500.3
   500.3
   500.3
   500.3
   500.3
   500.3
   500.3
   500.2
   500.4
   500.4
   500.5
   500.3
   500.3
   500.3
   500.4
   500.5
   500.3
   500.3
   500.3
   500.3
   500.3
   500.2
   500.4
   500.4
   500.4
   500.4
   500.4
   500.4
     0.0
     0.0
   366.1
   500.3
   500.3
   500.3
   500.3
   500.3
   500.3
   500.3
   500.1
   500.1
   500.4
   500.6
   500.6
   500.3
   500.3
   500.3
   500.3
   500.3
   500.3
   500.4
   500.3
   500.2
   500.4
   500.3
   500.5
   500.5
   500.4
   500.4
   182.6
     0.0
     0.0
   318.1
   500.3
   500.3
   500.3
   500.3
   500.3
   500.3
   500.4
   500.3
   500.1
   500.4
   500.4
   500.6
   500.3
   500.3
   500.3
   500.3
   500.3
   500.4
   500.4
   500.3
   500.2
   500.4
   500.3
   500.3
   500.4
   500.4
   500.4
   212.5
     0.0
     0.0
   188.4
   500.3
   500.3
   500.6
   500.3
   500.3
   500.3
   500.3
   347.0
   500.4
   500.5
   500.5
   500.3
   500.3
   500.4
   500.4
   500.3
   500.4
   500.4
   500.4
   500.2
   500.4
   500.4
   500.3
   500.3
   500.4
   500.4
   357.9
   233.4
     0.0
     0.0
   234.5
   346.1
   285.8
   500.6
   500.6
   500.6
   500.4
   500.3
   500.3
   222.1
   348.4
   422.8
   500.4
   500.3
   500.3
   490.6
   500.3
   500.3
   500.3
   500.4
   500.3
   500.4
   500.3
   500.5
   500.3
   500.3
   500.4
   500.3
   321.4
   230.4
     0.0
     0.0
   288.3
   150.0
   410.1
   205.8
   500.6
   500.4
   500.4
   209.3
   298.0
   500.3
   147.1
   166.0
   267.9
   352.0
   281.9
   500.4
   500.3
   494.7
   385.9
   340.0
   177.6
   500.3
   500.3
   500.3
   500.4
   337.3
   280.4
   500.2
   500.3
   160.4
   248.8
   287.9
     0.0
     0.0
   304.2
   253.7
   180.5
   248.6
   181.3
   218.3
   171.4
   209.2
   102.9
   251.0
   209.4
   197.8
   203.7
   201.5
   153.7
   246.8
   215.1
   147.0
   184.2
   211.9
   155.7
   157.7
   173.2
   196.1
   267.1
   311.6
   169.0
     0.0
     0.0
     0.0
     0.0
     0.0
     0.0
     0.0
     0.0
     0.0
     0.0
     0.0
     0.0
     0.0
     0.0
     0.0
     0.0
     0.0
     0.0
     0.0
     0.0
     0.0
     0.0
     0.0
     0.0
     0.0
     0.0
     0.0
     0.0
     0.0
     0.0
     0.0
     0.0
     0.0
     0.0
     0.0
     0.0
     0.0
     0.0
     0.0
     0.0
     0.0
     0.0
     0.0
     0.0
     0.0
     0.0
     0.0
     0.0
     0.0
     0.0
     0.0
     0.0
   304.0
   500.3
   500.5
   500.5
   500.4
   500.4
   500.2
   500.3
   500.3
   500.3
   500.3
   500.4
   500.4
   500.3
   500.2
   500.1
   365.5
   500.3
   500.3
   500.3
   500.4
   500.4
   500.2
   500.3
   500.4
   500.2
   500.2
   500.3
   500.3
   500.4
   500.3
   500.2
   500.2
   500.4
   500.3
   500.2
   500.4
   500.3
   500.3
   500.4
   100.6
   135.1
    60.5
    62.5
   175.5
   160.1
   108.4
   108.3
   105.6
    71.0
   113.6
   107.0
   114.9
   114.4
   139.2
   100.1
   124.5
    88.5
    94.0
   101.7
   107.2
   154.3
    94.8
   163.1
   129.8
   158.6
   106.9
   134.3
    88.1
   137.0
   170.2
   100.6
   107.9
   113.7
    84.4
    84.3
   137.9
   167.1
   127.9
    81.2
   123.5
   146.5
   107.4
   110.9
   152.2
    98.5
   136.5
   103.8
    76.9
   105.6
   108.3
   160.9
   117.8
   134.6
   104.3
   128.0
   121.0
    92.2
   118.1
   116.2
    96.0
   123.4
    97.8
    91.2
   154.7
   145.4
    92.8
    85.2
   130.0
   113.1
   138.2
    76.4
    95.5
    90.0
    75.4
   124.3
    86.3
   130.2
    76.2
   140.0
   141.0
   112.6
   103.2
    70.8
    51.0
   117.7
   102.4
    95.9
    98.1
   133.6
    83.2
   136.4
   168.1
   114.0
   118.5
   124.4
   108.0
    50.7
   141.4
    63.4
   500.4
   500.4
   500.7
   500.1
   500.6
   500.6
   500.6
   500.6
   500.3
   500.4
   500.4
   500.2
   500.3
   500.5
   500.3
   500.3
   500.3
   500.4
   500.3
   500.2
   500.3
   500.4
   500.3
   500.5
   500.5
   500.1
   500.2
   500.6
   500.4
   500.4
   500.4
   500.3
   500.4
   500.3
   500.3
   500.4
   500.4
   500.5
   500.1
   500.3
   500.4
   500.1
   500.3
   500.3
   500.3
   500.2
   500.3
   500.6
   500.3
   500.3
   500.3
   410.6
   500.2
   500.1
   500.4
   500.2
   500.3
   500.3
   500.4
   500.5
   500.3
   500.3
   500.4
   500.4
   500.4
   500.3
   500.3
   491.0
   500.3
   444.0
   500.3
   500.4
   500.3
   500.2
   500.3
   500.3
   500.3
   500.3
   500.3
   500.7
   500.1
   500.6
   500.4
   500.2
   500.3
   500.3
   500.2
   500.3
   500.3
   500.4
   500.1
   500.2
   500.4
   500.4
   500.3
   500.1
   500.3
   500.3
   500.2
   500.6
   500.3
   500.2
   500.1
   500.2
   500.3
   500.3
   500.3
   500.3
   500.3
   500.3
   500.3
   330.0
    99.1
   500.4
   363.5
   265.0
   314.4
   315.4
   319.1
   304.8
   500.4
   500.4
   500.4
SCALARS discharge float 1
LOOKUP_TABLE default
  0.1001E+05
  0.1885E+07
  0.1399E+08
  0.2008E+07
  0.1709E+08
  0.1193E+07
  0.1297E+08
  0.1463E+07
  0.3379E+07
  0.1350E+07
  0.1954E+08
  0.2247E+07
  0.2818E+08
  0.1409E+07
  0.1749E+08
  0.2149E+07
  0.9648E+07
  0.1869E+07
  0.7082E+07
  0.1314E+07
  0.1849E+08
  0.2073E+07
  0.5101E+07
  0.1092E+07
  0.1776E+07
  0.2605E+08
  0.2076E+07
  0.5414E+07
  0.2319E+08
  0.1413E+07
  0.1039E+08
  0.1814E+07
  0.1009E+08
  0.1738E+07
  0.4963E+07
  0.1059E+07
  0.1285E+08
  0.4383E+07
  0.1749E+07
  0.1003E+08
  0.1217E+07
  0.1126E+08
  0.1162E+07
  0.6180E+07
  0.1325E+08
  0.8906E+06
  0.2009E+07
  0.1050E+07
  0.7940E+07
  0.1107E+07
  0.7164E+04
  0.3311E+05
  0.7575E+07
  0.3248E+07
  0.4479E+07
  0.2839E+07
  0.1356E+08
  0.2340E+07
  0.3172E+07
  0.4768E+07
  0.4297E+07
  0.1268E+07
  0.1035E+08
  0.2250E+07
  0.1458E+08
  0.3100E+07
  0.1222E+08
  0.7910E+06
  0.1144E+07
  0.2447E+07
  0.5430E+07
  0.4393E+07
  0.2518E+07
  0.9405E+06
  0.4985E+07
  0.1546E+07
  0.1098E+08
  0.4872E+07
  0.2698E+07
  0.7584E+04
  0.3232E+05
  0.2590E+07
  0.2820E+07
  0.8302E+07
  0.1992E+07
  0.6527E+07
  0.9304E+07
  0.4344E+07
  0.2152E+08
  0.4614E+07
  0.4454E+07
  0.1424E+07
  0.2850E+07
  0.4722E+07
  0.9221E+07
  0.5697E+07
  0.9977E+07
  0.5303E+07
  0.2254E+07
  0.6323E+07
  0.5212E+07
  0.8621E+06
  0.2649E+08
  0.5718E+07
  0.1924E+08
  0.8159E+06
  0.5520E+07
  0.7795E+07
  0.1661E+07
  0.3945E+07
  0.2713E+07
  0.1910E+05
  0.6269E+07
  0.1772E+07
  0.1274E+07
  0.1762E+07
  0.1099E+08
  0.4644E+07
  0.7812E+07
  0.1511E+07
  0.2787E+07
  0.1676E+08
  0.2837E+07
  0.4384E+07
  0.6218E+07
  0.3624E+07
  0.1883E+07
  0.2557E+07
  0.3566E+07
  0.1996E+07
  0.1735E+08
  0.8859E+07
  0.2068E+08
  0.1484E+08
  0.1404E+08
  0.2198E+07
  0.1168E+08
  0.8179E+07
  0.3360E+07
  0.1188E+08
  0.1503E+08
  0.5015E+07
  0.2426E+07
  0.2271E+08
  0.1026E+08
  0.2810E+07
  0.1556E+07
  0.4039E+07
  0.1403E+07
  0.1380E+08
  0.2829E+07
  0.3853E+07
  0.3393E+07
  0.1952E+08
  0.2760E+07
  0.1304E+08
  0.2807E+07
  0.7374E+07
  0.2845E+08
  0.8244E+07
  0.2161E+07
  0.2231E+07
  0.1519E+08
  0.9569E+07
  0.6885E+07
  0.5191E+07
  0.2336E+07
  0.1251E+07
  0.4541E+07
  0.8584E+07
  0.1389E+08
  0.9602E+07
  0.7070E+07
  0.8126E+07
  0.3753E+07
  0.2150E+07
  0.3908E+07
  0.1352E+08
  0.1073E+08
  0.2234E+07
  0.1382E+08
  0.4387E+08
  0.1555E+08
  0.3833E+07
  0.3782E+07
  0.2161E+07
  0.1586E+08
  0.4526E+07
  0.1205E+07
  0.2846E+07
  0.4872E+07
  0.1045E+08
  0.5720E+07
  0.4062E+07
  0.3227E+07
  0.1028E+08
  0.1607E+07
  0.8203E+07
  0.6455E+07
  0.8566E+07
  0.1432E+07
  0.3257E+05
  0.7843E+07
  0.1800E+07
  0.5775E+07
  0.1149E+08
  0.1289E+08
  0.1994E+07
  0.2985E+07
  0.9001E+07
  0.1785E+08
  0.4216E+07
  0.7584E+07
  0.3903E+07
  0.2815E+07
  0.1530E+08
  0.2668E+07
  0.1102E+08
  0.3723E+07
  0.4883E+07
  0.6653E+07
  0.2454E+08
  0.7588E+07
  0.3559E+07
  0.4324E+07
  0.2501E+07