# vtk DataFile Version 3.0
Landscape
ASCII
DATASET UNSTRUCTURED_GRID
POINTS      21960 float
           0.000           0.000           0.000
        1600.000           0.000           0.000
           0.000        1600.000           0.000
         533.333         533.333           0.000
        1820.535        1836.129         154.472
        1600.000           0.000           0.000
        3200.000           0.000           0.000
        2206.845         612.043         361.411
        1759.034        1324.084         361.411
        4436.497        1560.645         194.066
        3200.000           0.000           0.000
        4800.000           0.000           0.000
        4145.499         520.215         348.353
        4522.726        1190.435         348.353
        6234.052        1737.813         109.798
        4800.000           0.000           0.000
        6400.000           0.000           0.000
        5811.350         579.271         383.723
        5796.549        1207.639         383.723
        8231.839        1585.959         172.370
        6400.000           0.000           0.000
        8000.000           0.000           0.000
        7979.353        1184.715         374.802
        7788.005        1201.699         406.356
        8170.701        1167.732         343.248
        8231.839        1585.959         172.370
        8000.000           0.000           0.000
        9600.000           0.000           0.000
        8610.613         528.653         343.248
        8170.701        1167.732         343.248
       10506.534         877.165         100.355
       11192.297        1979.624         225.054
        9502.865        3552.908         400.576
        9709.145        3270.655         538.336
        9811.482        3265.508         562.476
        9606.807        3275.803         514.196
       11192.297        1979.624         225.054
       11200.000           0.000           0.000
       12800.000           0.000           0.000
       11348.389        1590.338         403.597
       11193.838        1583.560         385.032
       11502.941        1597.116         422.161
       14535.388        1860.001         135.149
       12800.000           0.000           0.000
       14400.001           0.000           0.000
       14281.787        1333.004         382.925
       14068.479        1359.565         407.758
       14495.096        1306.444         358.091
       14535.388        1860.001         135.149
       14400.001           0.000           0.000
       16000.000           0.000           0.000
       14978.463         620.000         358.091
       14495.096        1306.444         358.091
       17224.315        1919.917         208.942
       16000.000           0.000           0.000
       17600.000           0.000           0.000
       16941.438         639.972         380.260
       17306.347        1500.697         380.260
       18961.790        1751.968          72.252
       17600.000           0.000           0.000
       19200.000           0.000           0.000
       18587.263         583.989         368.311
       18462.588        1109.736         368.311
        4436.497        1560.645         194.066
        1820.535        1836.129         154.472
        3200.000           0.000           0.000
        3152.344        1132.258         502.407
        3367.908        1673.177         502.407
       23731.335        1792.943         177.377
       22400.000           0.000           0.000
       24000.001           0.000           0.000
       23377.112         597.648         363.216
       23799.755        1336.342         363.216
       25712.931        1511.197         107.655
       24000.001           0.000           0.000
       25599.999           0.000           0.000
       25104.310         503.732         386.130
       25188.289        1048.343         386.130
       25712.931        1511.197         107.655
       27200.000           0.000           0.000
       27507.238        1603.221         179.807
       26806.723        1038.139         389.627
       26181.818        1034.702         374.182
       27428.803        1193.932         348.531
       26860.627        1570.059         437.104
       27507.238        1603.221         179.807
       27200.000           0.000           0.000
       28800.001           0.000           0.000
       27835.746         534.407         348.531
       27428.803        1193.932         348.531
       30065.602        1613.570         272.262
       28800.001           0.000           0.000
       30400.000           0.000           0.000
       29992.103        1372.522         384.823
       29870.297        1364.567         399.875
       30113.909        1380.477         369.770
       31040.554         771.051         130.910
       30065.602        1613.570         272.262
       30400.000           0.000           0.000
       30475.439         953.233         316.144
       30836.969         525.990         262.518
       30113.909        1380.477         369.770
       32676.537         889.541          61.988
       33371.579        1994.991         145.004
       33224.678        2857.386         221.397
       33090.931        1913.973         433.489
       33082.772        2347.937         433.489
       34548.701        1811.800         284.973
       34459.486        2336.808         254.692
       33371.579        1994.991         145.004
       34126.589        2047.867         379.381
       34510.302        2037.768         379.381
        6234.052        1737.813         109.798
        6043.012        3262.445         213.389
        5160.666        3300.186         400.497
        5469.345        3092.638         444.678
        5502.900        3285.548         429.843
        5435.789        2899.729         459.512
       37099.539        1414.823         218.618
       35200.000           0.000           0.000
       36800.001           0.000           0.000
       36366.513         471.608         340.591
       37037.577        1122.152         340.591
       37099.539        1414.823         218.618
       36800.001           0.000           0.000
       38399.999           0.000           0.000
       37205.834        1119.139         361.045
       37037.577        1122.152         340.591
       37374.092        1116.126         381.500
       39191.316         917.871          63.444
       38399.999           0.000           0.000
       40000.000           0.000           0.000
       39197.105         305.957         269.184
       38858.497         531.825         269.184
       40125.312        1643.514         115.313
       41599.998           0.000           0.000
       41840.942        1855.796         200.650
       41188.751        1166.437         400.343
       40575.554        1141.726         383.789
       41785.277        1427.053         374.420
       41238.368        1781.237         441.542
       41840.942        1855.796         200.650
       41599.998           0.000           0.000
       43200.002           0.000           0.000
       42213.647         618.599         374.420
       41785.277        1427.053         374.420
       43418.644        1867.336         129.901
       43200.002           0.000           0.000
       44800.000           0.000           0.000
       43806.215         622.445         360.303
       43351.743        1295.963         360.303
       34548.701        1811.800         284.973
       37099.539        1414.823         218.618
       36841.038        3085.085         237.888
       36163.093        2103.903         546.768
       35237.405        1704.620         558.968
       36950.450        2378.135         516.111
       35268.622        2211.682         568.994
       48116.282        1628.322         135.475
       49975.028        1831.460         282.966
       48146.017        3166.706         271.861
       49316.256        2106.703         525.605
       49484.908        1777.896         477.758
       49147.605        2435.510         573.451
       10506.534         877.165         100.355
        9502.865        3552.908         400.576
        8231.839        1585.959         172.370
        9413.746        2005.344         496.447
        9314.079        3260.755         534.115
        9016.144        1341.570         462.616
        9606.807        3275.803         514.196
       52954.322        1538.422         210.744
       52800.002           0.000           0.000
       54400.001           0.000           0.000
       53384.775         512.807         349.654
       52920.196        1198.220         349.654
       45576.245        1448.210         113.908
       46228.872        2830.415         226.667
       43557.179        3128.631         202.698
       44623.637        2786.057         512.893
       45069.728        2959.799         535.442
       44177.546        2612.314         490.345
       59004.449        1641.677         186.584
       57600.002           0.000           0.000
       59200.001           0.000           0.000
       58601.484         547.226         354.867
       59053.619        1228.891         354.867
       38196.713        1837.356         135.124
       37099.539        1414.823         218.618
       38399.999           0.000           0.000
       37898.751        1084.060         380.125
       38257.804        1285.200         358.286
       37374.092        1116.126         381.500
       37550.000        1588.300         411.056
       60471.826        1510.939         207.473
       59200.001           0.000           0.000
       60799.999           0.000           0.000
       60157.275         503.646         350.100
       60546.217        1168.440         350.100
       25712.931        1511.197         107.655
       25600.029        2863.835         221.842
       23731.335        1792.943         177.377
[...]
POINT_DATA      21960
SCALARS height float 1
LOOKUP_TABLE default
     0.0
     0.0
     0.0
     0.0
   154.5
     0.0
     0.0
   361.4
   361.4
   194.1
     0.0
     0.0
   348.4
   348.4
   109.8
     0.0
     0.0
   383.7
   383.7
   172.4
     0.0
     0.0
   374.8
   406.4
   343.2
   172.4
     0.0
     0.0
   343.2
   343.2
   100.4
   225.1
   400.6
   538.3
   562.5
   514.2
   225.1
     0.0
     0.0
   403.6
   385.0
   422.2
   135.1
     0.0
     0.0
   382.9
   407.8
   358.1
   135.1
     0.0
     0.0
   358.1
   358.1
   208.9
     0.0
     0.0
   380.3
   380.3
    72.3
     0.0
     0.0
   368.3
   368.3
   194.1
   154.5
     0.0
   502.4
   502.4
   177.4
     0.0
     0.0
   363.2
   363.2
   107.7
     0.0
     0.0
   386.1
   386.1
   107.7
     0.0
   179.8
   389.6
   374.2
   348.5
   437.1
   179.8
     0.0
     0.0
   348.5
   348.5
   272.3
     0.0
     0.0
   384.8
   399.9
   369.8
   130.9
   272.3
     0.0
   316.1
   262.5
   369.8
    62.0
   145.0
   221.4
   433.5
   433.5
   285.0
   254.7
   145.0
   379.4
   379.4
   109.8
   213.4
   400.5
   444.7
   429.8
   459.5
   218.6
     0.0
     0.0
   340.6
   340.6
   218.6
     0.0
     0.0
   361.0
   340.6
   381.5
    63.4
     0.0
     0.0
   269.2
   269.2
   115.3
     0.0
   200.7
   400.3
   383.8
   374.4
   441.5
   200.7
     0.0
     0.0
   374.4
   374.4
   129.9
     0.0
     0.0
   360.3
   360.3
   285.0
   218.6
   237.9
   546.8
   559.0
   516.1
   569.0
   135.5
   283.0
   271.9
   525.6
   477.8
   573.5
   100.4
   400.6
   172.4
   496.4
   534.1
   462.6
   514.2
   210.7
     0.0
     0.0
   349.7
   349.7
   113.9
   226.7
   202.7
   512.9
   535.4
   490.3
   186.6
     0.0
     0.0
   354.9
   354.9
   135.1
   218.6
     0.0
   380.1
   358.3
   381.5
   411.1
   207.5
     0.0
     0.0
   350.1
   350.1
   107.7
   221.8
   177.4
   478.9
   507.1
   450.7
   135.5
   161.4
   283.0
   427.3
   477.8
   376.9
   152.5
     0.0
     0.0
   288.4
   288.4
   119.6
   241.0
   400.4
   523.0
   523.0
   522.9
   135.1
   225.1
     0.0
   461.0
   407.8
   422.2
   525.6
   145.6
     0.0
     0.0
   352.3
   326.5
   378.1
   190.4
     0.0
     0.0
   378.3
   402.0
   354.6
    97.5
   296.0
   190.4
   374.9
   374.9
   207.5
   186.6
     0.0
   414.7
   354.9
   474.4
   127.9
   245.7
   207.5
   498.9
   535.9
   461.9
    72.3
   213.9
   150.1
   470.1
   430.3
   509.9
   112.8
   226.7
   213.9
   459.4
   503.6
   415.3
   208.9
   135.1
     0.0
   501.8
   501.8
   100.4
   172.4
     0.0
   462.6
   462.6
   154.5
     0.0
     0.0
   411.8
   361.4
   462.2
   213.9
     0.0
     0.0
   393.4
   416.8
   370.0
   110.1
     0.0
   112.8
   272.2
   272.2
   102.9
     0.0
     0.0
   373.4
   373.4
   102.9
     0.0
   210.7
   396.4
   383.0
   349.7
   444.0
   109.8
   194.1
     0.0
   394.5
   383.7
   348.4
   441.7
   102.9
   210.7
   216.4
   484.0
   524.0
   444.0
   145.6
     0.0
     0.0
   326.5
   326.5
   201.5
   400.6
   225.1
   518.6
   431.8
   551.2
   523.2
   189.1
   210.7
     0.0
   460.0
   390.6
   529.4
   272.3
   179.8
     0.0
   467.5
   399.9
   535.2
   400.6
   400.6
   201.5
   552.6
   523.2
   582.0
   127.9
     0.0
     0.0
   393.1
   393.1
   279.5
     0.0
     0.0
   396.6
   414.9
   378.4
   400.7
   177.4
   221.8
   538.7
   561.7
   507.1
   567.5
   265.8
   213.9
   226.7
   539.7
   560.8
   503.6
   554.8
   249.4
   201.5
   208.9
   533.3
   529.3
   507.4
   550.2
    72.3
   150.1
   249.4
   455.2
   455.2
    62.0
   221.4
   400.2
   496.2
   576.6
   506.1
   433.5
   113.9
     0.0
   238.1
   357.6
   336.9
   337.9
   400.6
   238.1
     0.0
     0.0
   337.9
   337.9
   237.9
   218.6
   135.1
   463.6
   411.1
   516.1
   115.3
    63.4
     0.0
   326.3
   326.3
   115.3
   135.1
    63.4
   381.0
   435.6
   326.3
   400.2
   400.2
   179.8
   601.3
   503.8
   563.7
   669.0
   129.9
   200.7
     0.0
   400.4
   360.3
   440.5
   189.1
     0.0
     0.0
   367.5
   390.6
   344.5
   189.1
     0.0
     0.0
   344.5
   344.5
   135.5
     0.0
   161.4
   376.9
   376.9
   400.3
   221.8
   400.2
   578.9
   559.9
   535.7
   654.6
   241.0
     0.0
     0.0
   400.2
   379.6
   420.8
   110.4
   270.5
   400.4
   513.7
   522.9
   504.6
   400.0
   210.7
   189.1
   519.8
   498.6
   529.4
   522.6
   113.9
   202.7
   129.9
   467.9
   445.5
   490.3
   186.6
   189.1
     0.0
   529.8
   529.8
   145.6
   270.5
     0.0
   442.0
   397.0
   487.0
   190.4
   145.6
     0.0
   445.6
   402.0
   378.1
   508.6
   127.9
   207.5
     0.0
   407.2
   393.1
   350.1
   461.9
   135.5
   226.7
   238.1
   481.4
   516.2
   438.4
   490.4
   400.2
   226.7
   271.9
   552.6
   571.1
   540.4
   555.7
   216.4
   271.9
   283.0
   553.6
   519.4
   573.5
   564.1
   119.6
   400.4
   152.5
   483.8
   495.0
   522.9
   442.9
   110.4
   241.0
     0.0
   455.4
   420.8
   489.9
   400.6
   213.4
   172.4
   545.0
   519.9
   534.1
   586.2
   189.5
     0.0
     0.0
   396.8
   427.8
   365.8
   189.5
     0.0
     0.0
   442.0
   365.8
   518.2
   240.6
   145.6
   190.4
   528.6
   508.6
   548.5
   296.0
   189.5
   167.3
   520.8
   544.4
   478.2
   555.3
   240.6
   400.4
   270.5
   533.4
   552.7
   522.9
   522.9
     0.0
   189.5
     0.0
   462.0
   518.2
   405.9
   109.8
   400.5
   194.1
   471.6
   511.5
   441.7
   459.5
   400.6
   400.6
   225.1
   497.1
   431.8
   562.5
   302.3
   154.5
   194.1
   513.5
   502.4
   524.7
     0.0
     0.0
   154.5
   477.5
   462.2
   492.9
   181.6
   154.5
   302.3
   512.7
   498.3
   527.0
   400.5
   302.3
   194.1
   519.4
   511.5
   524.7
   523.0
   400.5
   302.3
   400.5
   563.4
   603.8
   523.0
   400.7
   226.7
   177.4
   541.8
   504.3
   561.7
   579.7
   107.7
   400.2
   221.8
   513.3
   535.7
   490.8
   400.5
   181.6
   302.3
   558.3
   603.8
   527.0
   571.5
   181.6
     0.0
     0.0
   458.4
   487.1
   429.7
   400.0
   216.4
   210.7
   516.7
   498.6
   524.0
   522.6
   201.5
   225.1
   135.1
   538.4
   525.6
   551.2
   201.5
   135.1
   208.9
   515.5
   501.8
   529.3
   110.1
   112.8
   213.9
   343.7
   415.3
   272.2
   107.7
   177.4
     0.0
   403.2
   386.1
   363.2
   450.7
   400.4
   400.6
   400.6
   574.6
   522.9
   669.4
   522.9
    72.3
   249.4
   208.9
   456.1
   415.5
   507.4
   455.2
   400.2
   400.6
   201.5
   539.4
   522.8
   582.0
   522.7
   400.2
   179.8
   272.3
   547.2
   535.2
   563.7
   558.5
   130.9
   400.2
   272.3
   532.0
   558.5
   505.5
   254.7
   237.9
   400.5
   575.1
   557.0
   577.2
   598.1
   202.7
   200.7
   129.9
   474.8
   509.0
   440.5
    62.0
   400.2
   130.9
   447.1
   505.5
   506.1
   384.2
   400.5
   400.2
   221.4
   608.1
   669.0
   576.6
   552.1
   113.9
   129.9
     0.0
   445.5
   445.5
   282.1
   200.7
   202.7
   521.8
   534.7
   509.0
   254.7
   221.4
   145.0
   501.0
   501.0
   400.3
   400.7
   221.8
   603.0
   559.9
   567.5
   669.2
   265.8
   273.1
   150.1
   572.6
   572.6
   341.6
   135.1
   246.0
   542.3
   542.6
   512.5
   581.0
   400.2
   400.2
   400.2
   669.0
   669.0
   265.8
   150.1
   213.9
   535.4
   560.8
   509.9
   102.9
   216.4
   283.0
   463.9
   408.5
   519.4
   152.5
   400.4
   279.5
   506.9
   518.7
   495.0
   400.3
   189.1
   186.6
   544.7
   529.2
   529.8
   579.8
   400.3
   186.6
   207.5
   499.7
   492.6
   474.4
   522.8
   400.1
   202.7
   226.7
   551.2
   551.2
   535.4
   573.1
   110.4
   400.4
   241.0
   506.3
   523.0
   489.9
   504.6
   400.4
   245.7
   279.5
   540.0
   561.8
   518.7
   523.0
   400.2
   400.1
   226.7
   610.8
   571.1
   573.1
   668.9
   400.2
   216.4
   400.0
   532.2
   555.6
   522.6
   522.5
   400.4
   246.0
   348.3
   531.9
   523.0
   552.1
   522.9
   400.3
   400.0
   189.1
   524.3
   529.2
   522.6
   522.5
   400.3
   400.3
   186.6
   525.3
   492.6
   579.8
   522.8
   245.7
   400.3
   207.5
   527.3
   535.9
   522.8
   522.8
   400.3
   400.2
   400.0
   522.6
   522.5
   522.5
   522.8
   240.6
   270.5
   145.6
   519.8
   487.0
   552.7
   400.2
   241.0
   400.2
   538.4
   522.8
   554.0
   400.2
   400.4
   241.0
   522.9
   522.8
   523.0
   522.8
   400.3
   400.3
   245.7
   563.9
   522.8
   604.9
   327.4
   226.7
   400.7
   582.7
   549.4
   579.7
   629.8
   400.5
   240.6
   190.4
   558.3
   515.6
   548.5
   599.9
   400.4
   400.2
   241.0
   534.0
   523.0
   554.0
   522.9
   400.2
   249.4
   273.1
   572.7
   596.0
   539.2
   600.2
   296.0
   400.5
   190.4
   554.4
   515.6
   593.2
     0.0
   189.5
     0.0
   405.9
   405.9
   400.5
   400.5
   400.5
   669.3
   669.3
   199.7
   400.5
   167.3
   510.6
   572.8
   565.2
   436.6
   400.4
   213.4
   400.4
   548.4
   523.0
   573.9
   212.1
   181.6
   400.5
   549.8
   523.0
   571.5
   571.8
   296.0
   167.3
   400.5
   568.9
   593.2
   565.2
   555.3
     0.0
   167.3
   189.5
   446.5
   478.2
   414.8
   400.6
   400.6
   400.6
   669.4
   669.4
   181.6
     0.0
   154.5
   493.4
   498.3
   492.9
   487.1
   400.5
   400.5
   213.4
   485.6
   429.8
   541.4
   400.4
   213.4
   400.6
   606.4
   586.2
   573.9
   669.2
   400.7
   400.2
   400.4
   579.0
   523.1
   669.0
   523.2
   400.4
   400.6
   400.2
   522.8
   522.9
   522.7
   522.8
   400.4
   400.5
   213.4
   598.8
   578.5
   541.4
   669.3
   400.2
   201.5
   249.4
   568.8
   565.8
   550.2
   596.0
   273.1
   249.4
   150.1
   539.2
   539.2
   254.7
   400.5
   221.4
   546.7
   553.1
   501.0
   600.0
   400.5
   400.5
   221.4
   552.6
   553.1
   552.1
   283.4
   400.5
   400.4
   622.6
   609.9
   669.3
   582.9
   400.2
   400.3
   400.2
   654.6
   654.6
   400.5
   400.2
   400.2
   595.9
   669.0
   522.7
   327.4
   400.7
   400.5
   643.3
   669.3
   631.3
   622.2
   254.7
   400.5
   400.5
   599.1
   600.0
   598.1
   341.6
   237.9
   135.1
   542.6
   542.6
   282.1
   246.0
   200.7
   543.9
   531.4
   534.7
   563.9
   400.2
   400.2
   400.5
   571.5
   522.7
   522.7
   669.1
   282.1
   400.1
   400.2
   624.9
   602.8
   669.0
   600.5
   400.4
   400.4
   400.2
   522.8
   522.9
   522.8
   522.7
   400.5
   400.5
   400.5
   657.7
   669.3
   646.1
   400.2
   400.5
   400.5
   669.1
   669.1
   669.3
   669.0
   400.3
   400.3
   400.3
   522.8
   522.8
   341.6
   400.5
   237.9
   608.9
   577.2
   640.6
   400.5
   400.5
   341.6
   581.8
   640.6
   523.0
   283.4
   199.9
   212.1
   521.0
   493.3
   548.7
   400.2
   400.5
   400.3
   669.0
   669.0
   669.1
   669.1
   400.2
   271.9
   216.4
   568.3
   564.1
   555.7
   587.1
   400.2
   400.2
   216.4
   614.6
   555.6
   587.1
   669.0
   282.1
   400.2
   348.3
   619.1
   637.7
   600.5
   400.3
   400.0
   400.3
   522.6
   522.5
   522.5
   522.8
   400.3
   400.3
   400.3
   522.8
   522.8
   522.8
   400.1
   400.2
   400.2
   595.8
   669.0
   522.6
   400.5
   400.5
   400.5
   669.2
   669.2
   400.5
   400.5
   273.1
   618.7
   565.5
   589.6
   669.3
   400.4
   245.7
   400.4
   534.1
   545.1
   523.0
   400.4
   400.3
   245.7
   619.4
   545.1
   604.9
   669.0
   400.3
   400.3
   400.3
   565.7
   565.7
   400.1
   400.2
   400.2
   522.7
   522.6
   522.7
   400.3
   400.3
   400.3
   544.2
   522.8
   565.7
   400.4
   400.2
   400.4
   595.9
   669.0
   522.9
   400.1
   400.4
   240.6
   522.8
   522.6
   522.9
   522.7
   400.4
   400.2
   400.2
   595.9
   669.0
   522.7
   400.4
   400.2
   400.3
   595.9
   522.7
   669.0
   400.3
   400.2
   400.4
   595.9
   522.7
   669.2
   400.1
   400.4
   400.4
   522.6
   522.6
   522.6
   400.5
   400.1
   240.6
   548.1
   604.6
   522.7
   522.6
   400.3
   400.3
   400.4
   612.8
   565.7
   565.7
   669.2
   400.5
   240.6
   400.5
   627.2
   599.9
   604.6
   669.3
     0.0
   167.3
     0.0
   414.8
   414.8
   199.7
   400.5
   400.5
   547.9
   572.8
   523.1
     0.0
   199.7
   167.3
   436.6
   436.6
   191.0
   199.7
     0.0
   474.9
   474.9
   400.7
   400.7
   400.4
   523.2
   523.2
   523.2
   400.6
   400.5
   400.5
   669.3
   669.3
   400.4
   400.4
   213.4
   550.8
   523.0
   578.5
    88.8
     0.0
     0.0
   221.5
   221.5
    93.5
    88.8
   181.6
   403.8
   451.5
   356.1
   400.4
   400.4
   400.6
   570.0
   522.9
   669.2
   522.9
   400.5
   273.1
   265.8
   578.9
   572.6
   589.6
   576.5
   400.4
   400.6
   400.4
   522.9
   522.9
   522.9
   522.9
   400.2
   273.1
   400.5
   622.6
   565.5
   600.2
   669.0
   400.4
   400.4
   400.4
   669.2
   669.2
   400.3
   400.4
   400.2
   522.8
   522.8
   522.9
   400.4
   400.4
   400.3
   596.0
   522.9
   669.2
   327.4
   400.7
   400.7
   572.7
   622.2
   523.2
   400.5
   400.5
   400.5
   657.7
   646.1
   669.2
   400.5
   400.5
   400.5
   669.2
   669.2
   327.4
   400.5
   265.8
   603.9
   576.5
   631.3
   400.3
   400.3
   400.3
   669.1
   669.1
   669.1
   669.0
   400.7
   400.3
   400.2
   594.5
   523.2
   669.1
   523.1
   400.2
   400.3
   400.2
   595.9
   669.1
   522.7
   400.4
   400.5
   341.6
   543.3
   594.2
   523.0
   523.0
   400.2
   400.2
   400.2
   594.2
   522.7
   522.7
   669.1
   400.2
   400.2
   400.2
   596.9
   669.1
   524.8
   400.4
   341.6
   246.0
   544.0
   523.0
   581.0
   522.9
   400.1
   400.1
   400.2
   668.9
   668.9
   669.0
   400.2
   400.2
   400.3
   522.7
   522.8
   522.7
   400.3
   400.2
   400.3
   522.7
   522.7
   522.7
   400.4
   400.4
   341.6
   558.5
   522.9
   594.2
   400.3
   400.4
   400.2
   581.5
   522.9
   522.9
   669.1
   400.2
   400.2
   400.2
   524.8
   524.8
   400.3
   400.3
   400.5
   669.1
   669.1
   669.1
   669.2
   400.2
   400.4
   348.3
   559.1
   637.7
   522.9
   522.9
   400.1
   400.2
   400.1
   668.9
   669.0
   668.9
   400.1
   400.1
   400.2
   669.0
   669.0
   400.1
   400.1
   400.1
   668.9
   668.9
   400.2
   400.2
   400.1
   595.8
   668.9
   522.7
   400.4
   400.4
   400.4
   598.2
   669.2
   522.9
   522.9
   400.4
   283.4
   400.4
   629.4
   669.3
   582.9
   606.0
   400.2
   400.3
   400.3
   595.9
   522.7
   669.1
   400.4
   400.3
   400.3
   565.7
   565.7
   565.7
   400.3
   400.3
   400.4
   669.0
   669.0
   669.1
   400.3
   400.2
   400.3
   572.9
   522.7
   522.7
   669.0
   191.0
   400.5
   199.7
   511.8
   523.1
   523.1
   474.9
   400.3
   400.4
   400.3
   669.0
   669.0
   400.3
   400.3
   400.4
   669.0
   669.0
   669.0
   669.0
   400.4
   400.4
   400.1
   573.6
   669.2
   522.6
   522.6
   400.4
   400.3
   400.4
   669.0
   669.1
   669.0
   400.3
   400.3
   400.4
   669.1
   669.1
   669.2
   669.1
   400.4
   400.3
   400.4
   669.1
   669.2
   669.0
   669.2
   400.3
   400.3
   400.3
   669.1
   669.1
   669.0
   669.2
   400.3
   400.3
   400.3
   669.0
   669.0
   400.4
   400.6
   400.4
   578.2
   523.1
   523.1
   669.2
   400.2
   400.3
   400.3
   669.1
   669.1
   669.1
   669.1
   400.4
   400.3
   400.4
   669.2
   669.2
   669.2
   669.2
   400.7
   400.1
   400.2
   595.9
   522.6
   669.1
   400.5
   400.5
   400.5
   555.2
   627.4
   523.0
   523.0
   400.5
   400.5
   400.2
   578.7
   523.0
   669.2
   523.0
   191.0
   400.5
   400.5
   544.9
   523.1
   566.7
     0.0
   191.0
     0.0
   499.9
   499.9
   400.5
   400.6
   400.2
   596.0
   669.1
   523.0
   232.8
   400.5
   191.0
   551.2
   574.7
   566.7
   525.7
   283.4
   212.1
   400.5
   574.9
   609.9
   571.8
   548.7
    93.5
     0.0
     0.0
   422.6
   422.6
   101.2
    93.5
   212.1
   409.4
   426.7
   392.0
   400.4
   400.4
   400.4
   522.9
   522.9
   400.4
   400.4
   400.4
   669.3
   669.2
   669.3
   400.6
   400.7
   400.7
   523.1
   523.1
   523.1
   400.2
   400.2
   400.5
   669.1
   669.1
   669.1
   669.0
   400.4
   400.6
   400.7
   523.1
   523.2
   523.1
   523.1
   400.2
   400.4
   400.3
   600.3
   522.7
   669.2
   522.7
   400.2
   400.4
   400.4
   669.1
   669.2
   669.2
   669.1
   400.2
   400.2
   400.2
   669.0
   669.0
   400.6
   400.7
   400.6
   596.2
   669.3
   523.1
   400.3
   400.5
   400.5
   596.1
   523.0
   669.2
   400.2
   400.2
   400.2
   669.0
   669.0
   400.6
   400.6
   400.5
   523.0
   523.0
   523.0
   400.4
   400.6
   400.4
   669.2
   669.1
   669.1
   669.3
   400.2
   400.4
   400.2
   596.9
   669.0
   524.8
   400.2
   400.2
   400.4
   580.7
   522.7
   669.1
   522.7
   400.3
   400.4
   400.3
   575.4
   522.9
   522.9
   669.1
   400.6
   400.4
   400.6
   647.8
   669.3
   669.2
   573.9
   400.6
   400.5
   400.4
   596.1
   523.0
   669.1
   400.4
   400.4
   400.4
   596.0
   669.1
   522.9
   400.2
   400.2
   400.2
   524.8
   524.8
   400.4
   400.3
   400.2
   576.2
   522.7
   522.7
   669.1
   400.2
   400.6
   400.2
   669.0
   669.0
   669.0
   400.1
   400.2
   400.3
   522.7
   522.7
   522.7
   522.6
   400.2
   400.3
   400.2
   595.9
   669.1
   522.7
   400.3
   400.4
   400.4
   588.1
   522.9
   522.9
   669.1
   400.5
   400.4
   400.4
   522.9
   522.9
   400.2
   400.4
   400.2
   596.9
   669.0
   524.8
   400.3
   400.3
   400.2
   573.7
   522.7
   522.7
   669.0
   400.1
   400.2
   400.1
   585.2
   668.9
   522.7
   522.7
   400.2
   400.2
   400.1
   595.8
   522.7
   668.9
   400.1
   400.3
   400.3
   582.6
   669.0
   522.6
   522.6
   400.2
   400.2
   400.3
   669.0
   669.0
   669.0
   400.3
   400.3
   400.3
   603.8
   565.7
   565.7
   669.1
   400.3
   400.4
   400.3
   669.0
   669.0
   669.1
   400.3
   400.3
   400.3
   669.1
   669.1
   669.2
   400.3
   400.4
   400.4
   669.2
   669.1
   669.1
   669.2
   400.2
   400.3
   400.2
   669.0
   669.0
   669.0
   400.4
   400.3
   400.5
   669.2
   669.2
   669.2
   400.4
   400.3
   400.4
   669.2
   669.2
   669.2
   669.2
   400.3
   400.3
   400.3
   669.1
   669.1
   669.1
   400.4
   400.5
   400.4
   669.3
   669.3
   669.2
   400.4
   400.4
   400.4
   640.3
   640.3
   400.3
   400.3
   400.3
   669.1
   669.1
   400.4
   400.5
   400.3
   669.2
   669.2
   669.2
   669.2
   400.4
   400.4
   400.4
   654.8
   669.2
   640.3
   400.7
   400.4
   400.4
   669.3
   669.3
   400.6
   400.6
   400.4
   573.9
   573.9
   400.4
   400.5
   400.4
   669.2
   669.3
   669.2
   669.2
   132.8
   191.0
     0.0
   469.6
   439.3
   499.9
   400.3
   400.5
   232.8
   612.2
   669.1
   574.7
   579.0
   400.3
   400.5
   400.5
   581.9
   669.1
   523.0
   523.0
   132.8
   232.8
   191.0
   482.5
   439.3
   525.7
     0.0
   132.8
     0.0
   426.7
   426.7
   218.5
   132.8
     0.0
   436.6
   446.6
   426.7
   400.3
   400.3
   400.3
   669.1
   669.1
   400.3
   400.3
   400.3
   669.1
   669.1
   669.0
   294.2
   199.9
   283.4
   549.2
   514.2
   584.2
   108.0
   101.2
   218.6
   447.6
   452.9
   442.4
   101.2
     0.0
     0.0
   463.9
   463.9
   294.2
   283.4
   400.5
   599.4
   607.7
   584.2
   613.2
   294.2
   284.0
   218.6
   552.0
   528.8
   575.2
   400.4
   400.2
   400.5
   669.2
   669.2
   669.2
   400.6
   400.4
   400.5
   544.9
   523.0
   523.0
   596.2
   400.4
   400.3
   400.3
   669.1
   669.2
   669.1
   400.4
   400.5
   400.6
   523.1
   523.1
   523.1
   400.4
   400.4
   400.4
   669.1
   669.1
   400.3
   400.3
   400.3
   522.8
   522.8
   400.6
   400.4
   400.4
   632.7
   596.2
   669.1
   400.3
   400.2
   400.2
   594.0
   669.1
   522.7
   522.7
   400.6
   400.5
   400.4
   669.2
   669.3
   669.2
   669.1
   400.2
   400.5
   400.6
   669.1
   669.0
   669.3
   669.0
   400.4
   400.4
   400.4
   669.2
   669.2
   400.2
   400.2
   400.2
   596.9
   524.8
   669.0
   400.2
   400.4
   400.4
   595.9
   669.0
   522.9
   400.2
   400.2
   400.1
   668.9
   669.0
   668.9
   669.0
   400.3
   400.3
   400.4
   646.5
   669.2
   623.7
   400.3
   400.6
   400.4
   669.2
   669.1
   669.3
   669.2
   400.3
   400.6
   400.3
   669.1
   669.1
   669.1
   669.1
   400.4
   400.5