# vtk DataFile Version 3.0
Landscape
ASCII
DATASET UNSTRUCTURED_GRID
POINTS      27518 float
           0.000           0.000           0.000
        1600.000           0.000           0.000
           0.000        1600.000           0.000
         533.333         533.333           0.000
        1820.535        1836.129         188.500
        1600.000           0.000           0.000
        3200.000           0.000           0.000
        2206.845         612.043         369.916
        1767.187        1391.968         369.916
        4436.497        1560.645         235.169
        3200.000           0.000           0.000
        4800.000           0.000           0.000
        4145.499         520.215         358.827
        4503.620        1272.461         358.827
        6234.052        1737.813          59.580
        4800.000           0.000           0.000
        6400.000           0.000           0.000
        5811.350         579.271         367.735
        5684.101        1071.372         367.735
        8231.839        1585.959         208.484
        6400.000           0.000           0.000
        8000.000           0.000           0.000
        8014.000        1246.259         383.281
        7846.738        1252.549         413.941
        8181.261        1239.968         352.622
        8231.839        1585.959         208.484
        8000.000           0.000           0.000
        9600.000           0.000           0.000
        8610.613         528.653         352.622
        8181.261        1239.968         352.622
       10114.256        2299.635         183.218
       10506.534         877.165          60.550
       11192.297        1979.624         145.229
       10604.362        1718.808         389.985
       10605.815        2153.718         389.985
       11192.297        1979.624         145.229
       11200.000           0.000           0.000
       12800.000           0.000           0.000
       11403.491        1440.393         390.814
       11194.480        1418.576         370.519
       11612.501        1462.211         411.109
       14535.388        1860.001          62.453
       12800.000           0.000           0.000
       14400.001           0.000           0.000
       14180.723        1156.507         363.789
       13877.115        1154.459         385.770
       14484.331        1158.554         341.809
       14535.388        1860.001          62.453
       14400.001           0.000           0.000
       16000.000           0.000           0.000
       14978.463         620.000         341.809
       14484.331        1158.554         341.809
       17224.315        1919.917         413.750
       16000.000           0.000           0.000
       17600.000           0.000           0.000
       16941.438         639.972         436.199
       17204.775        1889.275         436.199
       18961.790        1751.968          28.226
       17600.000           0.000           0.000
       19200.000           0.000           0.000
       18587.263         583.989         352.601
       18368.909         989.216         352.601
        4436.497        1560.645         235.169
        1820.535        1836.129         188.500
        3200.000           0.000           0.000
        3152.344        1132.258         569.007
        3350.932        1674.964         569.007
       23731.335        1792.943         250.966
       22400.000           0.000           0.000
       24000.001           0.000           0.000
       23377.112         597.648         379.044
       23777.340        1485.926         379.044
       25712.931        1511.197          50.274
       24000.001           0.000           0.000
       25599.999           0.000           0.000
       25104.310         503.732         366.020
       25029.148         907.944         366.020
       25712.931        1511.197          50.274
       27200.000           0.000           0.000
       27507.238        1603.221         228.301
       26806.723        1038.139         378.115
       26307.815         906.661         355.879
       27447.205        1289.958         360.512
       27037.807        1579.146         418.515
       27507.238        1603.221         228.301
       27200.000           0.000           0.000
       28800.001           0.000           0.000
       27835.746         534.407         360.512
       27447.205        1289.958         360.512
       30065.602        1613.570         311.526
       28800.001           0.000           0.000
       30400.000           0.000           0.000
       29755.201         537.857         408.341
       29928.008        1438.145         408.341
       31040.554         771.051         275.663
       30065.602        1613.570         311.526
       30400.000           0.000           0.000
       30756.257         971.799         430.820
       30997.098         718.742         310.660
       30515.416        1224.857         550.979
       31415.600        1997.898         135.861
       33371.579        1994.991          31.283
       33224.678        2857.386          43.076
       32057.987        2145.941         405.319
       32075.096        1996.918         399.031
       32040.877        2294.965         411.607
       34548.701        1811.800         209.596
       34459.486        2336.808         162.873
       33371.579        1994.991          31.283
       34126.589        2047.867         298.937
       34514.330        2014.065         298.937
        6234.052        1737.813          59.580
        6043.012        3262.445         122.317
        5160.666        3300.186         217.391
        5812.577        2766.815         349.790
        5477.178        3286.648         349.790
       37099.539        1414.823         275.737
       35200.000           0.000           0.000
       36800.001           0.000           0.000
       36366.513         471.608         423.867
       36813.994        1202.142         423.867
       37099.539        1414.823         275.737
       36800.001           0.000           0.000
       38399.999           0.000           0.000
       37433.180         471.608         394.533
       37288.779        1208.942         394.533
       39191.316         917.871          41.306
       38399.999           0.000           0.000
       40000.000           0.000           0.000
       39197.105         305.957         258.237
       38839.226         509.472         258.237
       40125.312        1643.514          32.827
       39191.316         917.871          41.306
       40000.000           0.000           0.000
       39772.209         853.795         274.092
       39649.739        1274.031         274.092
       43418.644        1867.336          48.497
       41599.998           0.000           0.000
       43200.002           0.000           0.000
       43006.136        1112.398         362.697
       42681.836        1110.801         386.571
       43330.437        1113.994         338.823
       43418.644        1867.336          48.497
       43200.002           0.000           0.000
       44800.000           0.000           0.000
       43806.215         622.445         338.823
       43330.437        1113.994         338.823
       34548.701        1811.800         209.596
       37099.539        1414.823         275.737
       36841.038        3085.085         154.518
       36163.093        2103.903         553.215
       36128.225        1565.985         597.053
       37015.723        1956.385         497.563
       35457.514        2316.603         540.681
       48116.282        1628.322         154.524
       49600.000           0.000           0.000
       49975.028        1831.460         224.029
       49230.437        1153.260         430.665
       48518.221        1187.210         393.443
       49898.260        1456.562         381.838
       49282.316        1755.755         502.490
       10114.256        2299.635         183.218
        8231.839        1585.959         208.484
       10506.534         877.165          60.550
        8963.810        1651.536         492.586
        9082.129        1908.328         520.033
        8845.492        1394.745         465.138
       52954.322        1538.422         134.775
       52800.002           0.000           0.000
       54400.001           0.000           0.000
       53384.775         512.807         331.453
       52905.759        1054.299         331.453
       55816.240        1531.934         177.928
       54400.001           0.000           0.000
       55999.999           0.000           0.000
       55661.721        1138.621         366.199
       55459.174        1145.699         389.735
       55864.268        1131.543         342.663
       55816.240        1531.934         177.928
       55999.999           0.000           0.000
       57600.002           0.000           0.000
       56472.081         510.645         342.663
       55864.268        1131.543         342.663
       38196.713        1837.356          87.412
       37099.539        1414.823         275.737
       38399.999           0.000           0.000
       37898.751        1084.060         374.131
       38268.465        1188.847         347.778
       37288.779        1208.942         394.533
       37370.254        1519.078         398.645
       59004.449        1641.677          33.107
       57600.002           0.000           0.000
       59200.001           0.000           0.000
       58601.484         547.226         314.363
       59088.595         935.263         314.363
       25712.931        1511.197          50.274
       25600.029        2863.835         100.416
       23731.335        1792.943         250.966
       24219.560        1907.567         463.258
       24245.952        2087.855         487.567
       24193.168        1727.279         438.948
       63784.513        1656.536         237.036
[...]
POINT_DATA      27518
SCALARS height float 1
LOOKUP_TABLE default
     0.0
     0.0
     0.0
     0.0
   188.5
     0.0
     0.0
   369.9
   369.9
   235.2
     0.0
     0.0
   358.8
   358.8
    59.6
     0.0
     0.0
   367.7
   367.7
   208.5
     0.0
     0.0
   383.3
   413.9
   352.6
   208.5
     0.0
     0.0
   352.6
   352.6
   183.2
    60.6
   145.2
   390.0
   390.0
   145.2
     0.0
     0.0
   390.8
   370.5
   411.1
    62.5
     0.0
     0.0
   363.8
   385.8
   341.8
    62.5
     0.0
     0.0
   341.8
   341.8
   413.8
     0.0
     0.0
   436.2
   436.2
    28.2
     0.0
     0.0
   352.6
   352.6
   235.2
   188.5
     0.0
   569.0
   569.0
   251.0
     0.0
     0.0
   379.0
   379.0
    50.3
     0.0
     0.0
   366.0
   366.0
    50.3
     0.0
   228.3
   378.1
   355.9
   360.5
   418.5
   228.3
     0.0
     0.0
   360.5
   360.5
   311.5
     0.0
     0.0
   408.3
   408.3
   275.7
   311.5
     0.0
   430.8
   310.7
   551.0
   135.9
    31.3
    43.1
   405.3
   399.0
   411.6
   209.6
   162.9
    31.3
   298.9
   298.9
    59.6
   122.3
   217.4
   349.8
   349.8
   275.7
     0.0
     0.0
   423.9
   423.9
   275.7
     0.0
     0.0
   394.5
   394.5
    41.3
     0.0
     0.0
   258.2
   258.2
    32.8
    41.3
     0.0
   274.1
   274.1
    48.5
     0.0
     0.0
   362.7
   386.6
   338.8
    48.5
     0.0
     0.0
   338.8
   338.8
   209.6
   275.7
   154.5
   553.2
   597.1
   497.6
   540.7
   154.5
     0.0
   224.0
   430.7
   393.4
   381.8
   502.5
   183.2
   208.5
    60.6
   492.6
   520.0
   465.1
   134.8
     0.0
     0.0
   331.5
   331.5
   177.9
     0.0
     0.0
   366.2
   389.7
   342.7
   177.9
     0.0
     0.0
   342.7
   342.7
    87.4
   275.7
     0.0
   374.1
   347.8
   394.5
   398.6
    33.1
     0.0
     0.0
   314.4
   314.4
    50.3
   100.4
   251.0
   463.3
   487.6
   438.9
   237.0
     0.0
     0.0
   390.6
   409.8
   371.3
    35.3
     0.0
     0.0
   238.8
   238.8
   263.5
    75.1
   148.6
   490.2
   490.2
    62.5
   145.2
     0.0
   438.6
   385.8
   411.1
   496.0
    87.6
     0.0
     0.0
   338.4
   310.2
   366.6
   159.6
     0.0
     0.0
   373.4
   398.3
   348.5
    77.9
   359.9
   159.6
   385.3
   385.3
   327.3
    33.1
     0.0
   359.4
   314.4
   404.4
   164.5
   375.1
   327.3
   611.0
   688.6
   533.4
    28.2
   325.4
    57.3
   465.6
   431.5
   499.7
   123.5
   278.7
   325.4
   522.5
   586.5
   458.6
   413.8
    62.5
     0.0
   475.7
   436.2
   515.1
    60.6
   208.5
     0.0
   465.1
   465.1
   188.5
     0.0
     0.0
   438.2
   369.9
   506.5
   325.4
     0.0
     0.0
   414.2
   435.4
   393.0
   150.3
     0.0
   123.5
   297.9
   297.9
    25.3
     0.0
     0.0
   345.7
   345.7
    25.3
     0.0
   134.8
   358.3
   354.2
   331.5
   385.0
    59.6
   235.2
     0.0
   385.9
   367.7
   358.8
   427.9
    25.3
   134.8
    52.6
   411.4
   437.9
   385.0
    87.6
     0.0
     0.0
   310.2
   310.2
    89.5
   213.1
   145.2
   529.9
   517.6
   542.2
   177.9
   134.8
     0.0
   460.5
   389.7
   531.2
   311.5
   228.3
     0.0
   512.5
   408.3
   616.6
   377.3
   213.1
    89.5
   555.5
   542.2
   568.9
   327.3
     0.0
     0.0
   379.7
   379.7
   164.5
     0.0
     0.0
   402.1
   402.1
   164.0
   474.0
   100.4
   499.6
   499.6
    99.1
   325.4
   278.7
   544.6
   551.1
   586.5
   516.1
   211.0
    89.5
   413.8
   538.0
   540.2
   563.4
   520.6
    28.2
    57.3
   211.0
   432.5
   432.5
   135.9
    14.1
    31.3
   399.0
   399.0
    73.3
   148.4
    75.7
   459.9
   477.5
   442.2
   154.5
   424.7
   148.4
   518.2
   543.3
   493.1
   154.5
   275.7
    87.4
   448.1
   398.6
   497.6
    32.8
    48.5
   105.4
   446.7
   443.3
   422.5
   466.5
    32.8
    87.4
    41.3
   328.6
   383.1
   274.1
   261.0
   100.4
   322.1
   504.9
   460.5
   549.3
   154.5
    73.3
     0.0
   403.2
   326.6
   404.5
   470.7
   148.6
     0.0
     0.0
   383.0
   360.0
   405.9
    97.8
    42.9
   331.3
   418.3
   418.3
   245.5
   134.8
   177.9
   560.3
   531.2
   589.4
    73.3
    75.7
    48.5
   423.0
   403.7
   442.2
    33.1
   177.9
     0.0
   489.7
   489.7
    87.6
   331.3
     0.0
   446.8
   411.6
   482.0
   159.6
    87.6
     0.0
   434.7
   398.3
   366.6
   502.6
   164.5
   327.3
     0.0
   450.0
   402.1
   379.7
   533.4
   154.5
   148.4
    73.3
   481.9
   493.1
   470.7
   217.3
   424.7
   406.0
   592.9
   521.1
   664.7
    52.6
   424.7
   224.0
   498.7
   623.1
   407.1
   530.9
   263.5
    35.3
    75.1
   446.3
   501.4
   376.6
   490.2
    42.9
   148.6
     0.0
   426.5
   405.9
   447.0
   192.4
   208.5
   323.7
   583.3
   568.2
   595.7
   590.8
   252.3
     0.0
     0.0
   412.4
   442.0
   382.7
   252.3
     0.0
     0.0
   497.5
   382.7
   612.2
   145.1
    87.6
   159.6
   523.4
   502.6
   544.3
   359.9
   252.3
   175.3
   593.7
   650.7
   523.9
   629.0
   145.1
   155.9
   331.3
   544.8
   545.5
   537.6
   549.0
     0.0
   252.3
     0.0
   536.4
   612.2
   460.6
    59.6
   217.4
   235.2
   485.1
   542.3
   427.9
   183.2
   213.1
   323.7
   484.4
   552.4
   416.4
   536.4
   188.5
   235.2
   599.9
   569.0
   630.8
     0.0
     0.0
   188.5
   529.2
   506.5
   551.9
   183.8
   188.5
   536.4
   575.7
   547.0
   604.5
   217.4
   536.4
   235.2
   584.9
   542.3
   630.8
   609.7
   396.7
   536.4
   217.4
   686.0
   762.3
   609.7
   302.2
   474.0
   400.3
   663.6
   705.7
   615.7
   687.3
    50.3
   322.1
   100.4
   460.5
   460.5
   396.7
   183.8
   536.4
   676.0
   762.3
   604.5
   642.5
   183.8
     0.0
     0.0
   469.8
   506.9
   432.7
   245.5
    52.6
   134.8
   439.5
   437.9
   441.0
    89.5
   145.2
    62.5
   506.8
   496.0
   517.6
    89.5
    62.5
   413.8
   527.7
   515.1
   540.2
   150.3
   123.5
   325.4
   378.2
   458.6
   297.9
    50.3
   251.0
     0.0
   393.6
   366.0
   379.0
   438.9
   230.5
   506.7
   156.2
   467.3
   515.7
   418.8
    28.2
   211.0
   413.8
   481.8
   433.9
   563.4
   432.5
   112.7
   211.0
    57.3
   439.6
   439.6
   259.7
   228.3
   311.5
   605.7
   621.2
   616.6
   544.2
   135.9
   311.5
   275.7
   489.4
   466.0
   551.0
   443.4
   204.4
   162.9
   154.5
   519.8
   514.5
   525.1
   259.7
   322.1
   228.3
   625.4
   548.0
   621.2
   664.3
   135.9
   275.7
    14.1
   416.6
   389.8
   443.4
   135.9
    71.3
   259.7
   480.3
   490.8
   469.8
    73.3
    48.5
     0.0
   403.7
   403.7
   105.4
    48.5
    75.7
   422.5
   422.5
   162.9
    43.1
    31.3
   353.4
   353.4
   164.0
   261.0
   303.9
   593.4
   549.9
   637.0
    99.1
   112.7
    57.3
   464.6
   464.6
   484.1
    87.4
    72.4
   502.4
   569.0
   447.8
   533.6
   616.4
   322.1
   259.7
   680.5
   709.8
   664.3
   675.1
   421.8
   377.3
   346.4
   729.6
   764.2
   689.4
   722.9
    25.3
    52.6
   224.0
   407.1
   407.1
    35.3
    90.9
   237.0
   404.2
   404.2
   190.4
   177.9
    33.1
   516.0
   569.3
   489.7
   469.2
    58.4
    33.1
   327.3
   437.3
   404.4
   470.3
   539.0
    75.7
   148.4
   536.8
   477.5
   596.2
    97.8
   148.6
    42.9
   449.7
   452.3
   447.0
    90.9
   375.1
   237.0
   510.4
   625.9
   404.2
   500.6
   323.8
   406.0
   335.8
   675.8
   657.3
   696.1
   670.4
    93.9
    52.6
   245.5
   486.3
   441.0
   531.6
   101.6
   137.7
   484.1
   550.4
   569.2
   531.7
   469.9
   245.5
   177.9
   634.8
   589.4
   680.2
   190.4
    33.1
    58.4
   469.2
   469.2
   375.1
    58.4
   327.3
   568.4
   688.6
   470.3
   522.4
   515.9
    93.9
   245.5
   552.8
   531.6
   574.1
   145.1
   331.3
    87.6
   509.8
   482.0
   537.6
   263.5
   375.2
    90.9
   514.0
   519.1
   508.8
   263.5
    90.9
    35.3
   505.1
   508.8
   501.4
    89.7
    58.4
   375.1
   550.8
   522.4
   579.3
   302.2
   278.7
   474.0
   658.6
   641.5
   650.7
   687.3
   323.2
   159.6
   348.3
   648.4
   614.4
   682.4
    97.8
   537.5
   148.6
   499.4
   550.5
   452.3
   547.1
   156.2
   377.3
    89.5
   575.7
   568.9
   582.5
   359.9
   348.3
   159.6
   651.5
   651.5
     0.0
   252.3
     0.0
   460.6
   460.6
   323.2
   613.5
   663.3
   794.5
   722.6
   866.4
   335.5
   175.3
   189.7
   508.5
   580.1
   436.8
   276.3
   192.4
   306.5
   549.8
   614.5
   485.0
   237.1
   183.8
   396.7
   618.2
   573.1
   642.5
   659.6
   359.9
   175.3
   348.3
   635.3
   630.0
   651.5
   629.0
     0.0
   175.3
   252.3
   473.4
   523.9
   422.9
   377.3
   323.7
   213.1
   613.1
   673.8
   552.4
   183.8
     0.0
   188.5
   537.6
   547.0
   551.9
   506.9
   276.3
   217.4
   122.3
   452.8
   555.8
   349.8
   276.3
   306.5
   481.2
   628.6
   642.6
   614.5
   162.9
   464.8
    43.1
   460.1
   474.9
   353.4
   597.3
   464.8
    71.3
    43.1
   474.9
   474.9
    99.1
    57.3
   325.4
   525.4
   551.1
   499.7
   657.3
   511.4
   479.4
   825.6
   790.0
   830.5
   837.8
   276.3
   122.3
   192.4
   485.0
   485.0
   367.0
   396.7
   481.2
   740.1
   744.6
   763.5
   703.5
   230.5
   112.7
   506.7
   556.6
   544.9
   568.2
   616.4
   261.0
   322.1
   617.2
   709.8
   549.3
   627.4
   255.8
    71.3
    93.4
   481.0
   481.0
   128.7
   558.3
   159.1
   583.0
   583.0
   162.9
   538.7
   464.8
   637.2
   716.2
   597.3
   604.0
   484.1
   154.5
    87.4
   569.0
   569.0
    32.8
   105.4
    72.4
   451.5
   436.5
   466.5
   255.8
    93.4
   251.2
   543.7
   543.7
   134.6
   539.0
   163.9
   569.0
   558.7
   579.3
   345.3
   375.2
   582.8
   688.2
   654.4
   738.5
   674.1
   254.7
    71.3
   464.8
   579.0
   579.0
   306.3
    93.4
   254.7
   575.2
   522.3
   628.1
   363.6
   515.9
   469.9
   748.0
   816.8
   675.1
   737.0
   204.4
   484.1
   307.7
   670.8
   615.7
   725.9
   204.4
   307.7
   538.7
   656.4
   656.4
   367.0
   237.2
   237.1
   581.0
   533.7
   628.4
   406.0
   424.7
    52.6
   575.9
   530.9
   664.7
   542.4
    93.9
   406.0
    52.6
   552.3
   542.4
   562.2
   134.6
   105.4
    75.7
   444.5
   444.5
   515.9
   245.5
   469.9
   748.5
   680.2
   816.8
   190.4
   363.6
   469.9
   624.8
   574.5
   675.1
   202.2
   335.8
   406.0
   641.4
   586.7
   696.1
   307.7
   254.7
   538.7
   607.0
   625.8
   656.4
   562.3
   365.2
   162.7
   112.7
   541.2
   522.5
   560.0
   156.5
   375.1
    90.9
   500.3
   500.0
   500.6
   156.5
    89.7
   375.1
   534.8
   500.0
   579.3
   525.0
   666.4
   515.9
   363.6
   786.1
   861.4
   737.0
   785.3
   202.2
   115.7
   498.7
   498.6
   452.9
   544.3
   190.4
    89.7
   186.9
   488.0
   446.3
   529.8
   221.3
   537.5
   155.9
   613.2
   613.2
   244.3
   155.9
   145.1
   567.9
   586.8
   549.0
   324.7
   537.5
   221.3
   673.4
   733.7
   613.2
   582.8
   375.2
   606.3
   807.7
   738.5
   876.9
   324.7
   375.2
   537.5
   714.5
   733.2
   733.7
   688.9
   244.3
   221.3
   155.9
   604.5
   586.8
   622.3
   323.2
   244.3
   145.1
   561.7
   561.7
   476.9
   284.8
   452.3
   749.3
   749.3
   323.2
   663.3
   453.5
   775.0
   837.3
   712.7
     0.0
   175.3
     0.0
   422.9
   422.9
   335.5
   348.3
   175.3
   625.0
   673.7
   630.0
   580.1
     0.0
   189.7
   175.3
   436.8
   436.8
   240.4
   189.7
     0.0
   491.6
   491.6
   303.9
   657.3
   479.4
   837.8
   837.8
   403.8
   254.7
   307.7
   611.1
   660.0
   562.3
   506.7
   162.7
   403.5
   676.9
   581.2
   772.7
    86.7
     0.0
     0.0
   220.5
   220.5
    95.5
    86.7
   183.8
   412.8
   469.5
   356.2
   421.8
   323.7
   377.3
   723.0
   717.6
   673.8
   764.2
   365.2
   112.7
    99.1
   493.5
   464.6
   522.5
   213.1
   377.3
   156.2
   584.1
   585.6
   582.5
   506.7
   112.7
   162.7
   574.7
   568.2
   581.2
   486.8
   481.2
   306.5
   729.4
   816.2
   642.6
   289.2
   213.1
   313.0
   567.2
   546.7
   587.7
   289.2
   346.4
   213.1
   631.9
   631.9
   302.2
   558.3
   184.9
   614.6
   632.9
   596.3
   254.7
   464.8
   538.7
   634.8
   716.2
   579.0
   625.8
   209.8
   365.2
   544.4
   610.3
   547.1
   697.1
   556.6
   128.7
   184.9
   558.3
   530.4
   596.3
   464.5
   403.5
   532.1
   313.0
   700.9
   670.7
   731.0
   657.3
   261.0
   511.4
   728.7
   667.5
   790.0
   511.4
   261.0
   616.4
   751.3
   627.4
   875.3
   548.7
   307.7
   484.1
   730.1
   747.3
   725.9
   722.5
   255.8
   511.4
   616.4
   779.8
   875.3
   684.4
   368.1
   511.4
   251.2
   671.3
   731.5
   680.4
   625.2
   101.6
   484.1
    72.4
   532.6
   533.6
   531.7
   323.8
   217.3
   406.0
   657.3
   657.3
   300.2
    93.9
   515.9
   558.8
   480.2
   574.1
   686.1
   300.2
   666.4
   353.1
   668.5
   729.7
   607.3
   137.7
   548.7
   484.1
   658.2
   569.2
   747.3
   294.1
   509.8
   590.7
   723.3
   626.3
   844.7
   690.1
   125.2
   368.1
   251.2
   521.8
   418.5
   625.2
   269.1
   404.8
   727.1
   739.8
   739.8
   294.1
   313.8
   134.6
   587.9
   665.1
   457.7
   560.8
   440.5
   163.9
   539.0
   663.6
   773.4
   579.3
   608.6
   323.8
   335.8
   440.5
   687.9
   705.5
   670.4
   574.4
   440.5
   335.8
   771.6
   837.7
   705.5
   324.7
   163.9
   440.5
   657.0
   608.6
   705.4
   421.8
   511.8
   486.8
   811.4
   853.7
   753.6
   809.0
   561.5
   226.8
   177.4
   594.7
   613.6
   575.7
   289.2
   532.1
   373.6
   679.7
   645.9
   713.5
   190.4
   186.9
   363.6
   552.8
   575.9
   529.8
   107.1
    89.7
   156.5
   527.7
   525.0
   530.5
   300.2
   353.1
   115.7
   607.3
   607.3
   472.7
   335.5
   240.4
   618.4
   591.9
   644.8
   107.1
   186.9
    89.7
   439.7
   439.7
   472.0
   107.1
   206.5
   588.3
   528.1
   648.5
   358.6
   221.3
   244.3
   639.4
   656.5
   622.3
   206.5
   107.1
   156.5
   529.3
   530.5
   528.1
   164.4
   284.8
   141.1
   535.8
   520.6
   550.9
   582.8
   606.3
   250.6
   741.8
   692.7
   876.9
   657.8
   476.9
   586.2
   666.4
   878.3
   937.7
   803.2
   858.0
   472.0
   141.1
   107.1
   533.8
   533.8
   750.7
   358.9
   479.4
   798.4
   768.3
   768.9
   854.6
   506.7
   403.5
   313.0
   707.5
   643.2
   670.7
   772.7
   324.7
   512.0
   702.9
   750.2
   660.7
   839.7
   358.6
   509.0
   512.0
   794.7
   832.7
   756.6
   663.3
   530.2
   429.0
   808.6
   822.7
   792.4
   823.3
   663.3
   429.0
   453.5
   798.4
   755.1
   837.3
   823.3
   472.7
   613.5
   335.5
   728.9
   813.0
   644.8
     0.0
   240.4
     0.0
   568.1
   568.1
   429.0
   734.4
   453.5
   791.8
   828.4
   755.1
   302.8
   472.7
   156.9
   591.7
   566.4
   617.0
   367.0
   237.1
   396.7
   685.5
   744.6
   659.6
   628.4
    95.5
     0.0
     0.0
   437.2
   437.2
   114.0
    95.5
   237.1
   428.4
   453.0
   403.7
   421.8
   486.8
   306.5
   753.6
   753.6
   561.5
   481.2
   486.8
   818.9
   817.1
   816.2
   824.0
   358.9
   558.3
   484.3
   719.0
   672.2
   769.8
   727.0
   109.2
   125.2
   251.2
   367.0
   315.4
   418.5
   479.4
   358.9
   484.3
   782.2
   831.7
   727.0
   768.9
   289.2
   511.8
   346.4
   647.1
   631.9
   662.4
   454.2
   486.8
   511.8
   830.8
   815.6
   853.7
   816.5
   152.9
   125.2
   383.5
   518.1
   518.1
   159.1
   358.9
   215.8
   530.6
   530.6
   269.1
   544.4
   433.4
   705.7
   633.3
   784.0
   668.0
   109.2
   306.3
   125.2
   382.1
   429.0
   335.2
   159.1
   218.4
   544.4
   608.5
   608.5
   185.7
   403.8
   548.7
   706.3
   817.6
   575.1
   636.3
   368.1
   479.4
   511.4
   783.4
   731.5
   830.5
   776.9
   373.6
   454.2
   511.8
   786.7
   760.4
   816.5
   782.4
   294.1
   590.7
   185.7
   630.7
   571.3
   690.1
   589.6
   833.8
   809.1
  1025.8
   949.3
  1102.3
   403.8
   307.7
   548.7
   770.1
   722.5
   817.6
   185.7
   548.7
   137.7
   575.1
   575.1
   152.9
   368.1
   125.2
   547.8
   547.8
   513.1
   793.2
   373.6
   861.0
   861.0
   595.8
   475.8
   254.7
   744.7
   700.7
   700.9
   829.0
   156.9
   115.7
   382.8
   527.3
   527.3
   199.8
   324.7
   239.9
   552.1
   527.5
   576.7
   294.1
   185.7
   137.7
   571.3
   571.3
   563.9
   750.7
   789.6
   954.5
   900.0
  1041.3
   937.5
   415.3
   479.4
   368.1
   750.4
   806.5
   776.9
   669.0
   353.1
   382.8
   115.7
   589.3
   527.3
   651.3
   689.1
   440.5
   574.4
   871.2
   871.0
   837.7
   924.1
   689.1
   324.7
   440.5
   788.2
   871.0
   705.4
   156.9
   382.8
   208.1
   551.6
   551.6
   404.9
   475.8
   801.2
   791.9
   822.0
   761.8
   476.9
   363.6
   284.8
   699.6
   734.6
   664.6
   141.1
   186.9
   107.1
   454.6
   469.4
   439.7
   586.2
   849.5
   514.3
   824.8
   874.9
   741.7
   921.7
   411.1
   433.4
   689.2
   753.7
   727.6
   789.6
   757.1
   475.8
   182.1
   152.9
   613.7
   613.7
   250.6
   606.3
   291.7
   706.7
   720.7
   692.7
   324.7
   713.7
   708.7
   950.2
   950.2
   164.4
   303.4
   452.3
   649.6
   699.3
   600.0
   407.5
   291.7
   602.7
   714.7
   632.6
   796.8
   987.3
   713.7
   702.9
  1013.0
  1071.4
   960.3
  1043.8
   586.2
   514.3
   353.1
   717.4
   693.1
   741.7
   374.2
   713.7
   644.2
   862.5
   769.4
   955.5
   324.7
   702.9
   713.7
   960.3
   960.3
   509.0
   702.9
   512.0
   852.9
   832.7
   839.7
   889.4
   589.6
   809.1
   702.9
   998.1
  1050.3
   945.9
   374.2
   708.7
   713.7
   836.0
   769.4
   950.2
   766.0
    86.3
   240.4
     0.0
   499.0
   430.0
   568.1
   235.1
   410.9
   429.0
   742.5
   742.5
   302.8
   429.0
   530.2
   744.9
   792.4
   697.3
   472.7
    86.3
   156.9
   548.1
   566.4
   529.8
     0.0
    86.3
     0.0
   391.4
   391.4
   269.0
    86.3
     0.0
   415.4
   439.4
   391.4
   620.1
   590.7
   509.8
   858.3
   830.2
   844.7
   896.4
   727.1
   532.1
   403.5
   792.0
   879.1
   731.0
   773.5
   140.2
   237.2
   367.0
   514.5
   481.8
   547.2
    49.8
   114.0
   101.5
   435.2
   434.0
   436.5
   114.0
     0.0
     0.0
   498.4
   498.4
   177.4
   140.2
   367.0
   559.6
   572.0
   547.2
   140.2
   414.2
   101.5
   510.4
   493.6
   527.2
   479.6
   486.8
   454.2
   796.6
   804.9
   815.6
   761.3
   218.4
   433.4
   544.4
   696.3
   608.5
   784.0
   513.1
   532.1
   727.1
   868.4
   853.1
   879.1
   880.8
   750.7
   290.7
   358.9
   707.5
   646.8
   768.3
   288.7
   689.2
   433.4
   705.7
   621.8
   789.6
   404.8
   663.7
   727.1
   853.2
   966.5
   739.8
   218.4
   288.7
   433.4
   621.8
   621.8
   793.2
   454.2
   373.6
   833.9
   885.4
   782.4
   218.4
   290.7
   288.7
   583.1
   564.3
   602.0
   595.8
   254.7
   403.8
   680.4
   660.0
   700.9
   789.6
   750.7
   479.4
   948.0
   854.6
  1041.3
   152.9
   415.3
   368.1
   608.4
   547.8
   669.0
   415.3
   789.6
   479.4
   824.3
   806.5
   842.2
   689.1
   574.4
   808.5
   951.1
   915.0
   924.1
  1006.0
   236.8
   582.8
   185.7
   617.2
   617.2
   582.8
   403.8
   185.7
   684.2
   773.8
   636.3
   617.2
   595.8
   669.8
   801.2
   962.6
  1016.1
   910.8
   936.3
   410.8
   563.9
   589.3
   839.7
   772.8
   906.5
   513.1
   663.7
   889.2
   958.7
   878.3
  1039.1
   434.5
   429.0
   410.9
   769.5
   797.8
   742.5
   746.8
   239.9
   620.1
   509.8
   710.0
   589.8
   830.2
   291.3
   473.0
   641.1
   655.6
   639.3
   672.0
   590.7
   236.8
   185.7
   643.5
   643.5
   669.8
   874.8
   801.2
  1043.9
  1104.9
  1016.1
  1002.7
   514.3
   208.1
   382.8
   644.0
   736.3
   551.6
   521.2
   590.7
   620.1
   881.3
   863.1
   896.4
   888.7
   389.7
   582.8
   236.8
   717.4
   717.4
   361.6
   156.9
   208.1
   538.9
   538.9
   514.3
   382.8
   353.1
   692.3
   651.3
   736.3
   693.1
   689.1
   689.8
   641.1
   949.0
   995.6
   921.2
   878.2
   404.9
   801.2
   874.8
  1104.9
  1104.9
   538.6
   454.2
   793.2
   862.7
   834.3
   885.4
   899.8
   361.6
   208.1
   262.0
   561.4
   538.9
   583.9
   164.4
   452.3
   284.8
   575.4
   600.0