# vtk DataFile Version 3.0
Landscape
ASCII
DATASET UNSTRUCTURED_GRID
POINTS      21936 float
           0.000           0.000           0.000
        1600.000           0.000           0.000
           0.000        1600.000           0.000
         533.333         533.333           0.000
        1820.535        1836.129         115.924
        1600.000           0.000           0.000
        3200.000           0.000           0.000
        2206.845         612.043         350.853
        1749.654        1245.991         350.853
        4436.497        1560.645         134.593
        3200.000           0.000           0.000
        4800.000           0.000           0.000
        4145.499         520.215         332.271
        4550.087        1072.962         332.271
        6234.052        1737.813          96.091
        4800.000           0.000           0.000
        6400.000           0.000           0.000
        5811.350         579.271         376.742
        5762.539        1166.425         376.742
        8231.839        1585.959         125.009
        6400.000           0.000           0.000
        8000.000           0.000           0.000
        7933.813        1104.014         362.954
        7710.739        1134.804         395.786
        8156.886        1073.223         330.122
        8231.839        1585.959         125.009
        8000.000           0.000           0.000
        9600.000           0.000           0.000
        8610.613         528.653         330.122
        8156.886        1073.223         330.122
       10506.534         877.165          85.661
       11192.297        1979.624         153.645
        9502.865        3552.908         200.557
        9857.612        3025.601         451.229
        9985.292        3103.647         453.697
        9729.933        2947.554         448.761
       11192.297        1979.624         153.645
       11200.000           0.000           0.000
       12800.000           0.000           0.000
       11399.099        1451.594         388.804
       11194.435        1430.218         368.980
       11603.764        1472.969         408.629
       14535.388        1860.001         111.494
       12800.000           0.000           0.000
       14400.001           0.000           0.000
       14237.835        1262.675         373.771
       13984.242        1269.279         396.243
       14491.429        1256.070         351.299
       14535.388        1860.001         111.494
       14400.001           0.000           0.000
       16000.000           0.000           0.000
       14978.463         620.000         351.299
       14491.429        1256.070         351.299
       17224.315        1919.917         137.968
       16000.000           0.000           0.000
       17600.000           0.000           0.000
       16941.438         639.972         364.309
       17334.964        1354.450         364.309
       18961.790        1751.968          69.312
       17600.000           0.000           0.000
       19200.000           0.000           0.000
       18587.263         583.989         363.635
       18442.618        1084.044         363.635
        4436.497        1560.645         134.593
        1820.535        1836.129         115.924
        3200.000           0.000           0.000
        3152.344        1132.258         432.759
        3244.902        1686.130         432.759
       23731.335        1792.943         129.454
       22400.000           0.000           0.000
       24000.001           0.000           0.000
       23377.112         597.648         351.048
       23814.500        1237.942         351.048
       25712.931        1511.197          91.835
       24000.001           0.000           0.000
       25599.999           0.000           0.000
       25104.310         503.732         376.698
       25124.587         992.143         376.698
       25712.931        1511.197          91.835
       27200.000           0.000           0.000
       27507.238        1603.221         132.031
       26806.723        1038.139         370.124
       26206.948        1009.164         369.004
       27410.474        1098.290         335.379
       26821.964        1568.076         401.471
       27507.238        1603.221         132.031
       27200.000           0.000           0.000
       28800.001           0.000           0.000
       27835.746         534.407         335.379
       27410.474        1098.290         335.379
       30065.602        1613.570         166.848
       28800.001           0.000           0.000
       30400.000           0.000           0.000
       29944.520        1177.600         361.360
       29731.114        1187.116         378.107
       30157.925        1168.084         344.612
       31040.554         771.051         100.613
       30065.602        1613.570         166.848
       30400.000           0.000           0.000
       30483.978         830.825         295.474
       30810.032         493.565         246.335
       30157.925        1168.084         344.612
       32676.537         889.541          62.030
       33371.579        1994.991         125.143
       33224.678        2857.386         163.133
       33090.931        1913.973         406.097
       33057.829        2258.394         406.097
       34548.701        1811.800         182.351
       34459.486        2336.808         179.983
       33371.579        1994.991         125.143
       34126.589        2047.867         286.487
       34504.517        2071.815         286.487
        6234.052        1737.813          96.091
        6043.012        3262.445         156.033
        5160.666        3300.186         200.492
        5820.201        2741.720         302.203
        5729.083        3275.873         281.414
        5911.320        2207.567         322.992
       37099.539        1414.823         141.622
       35200.000           0.000           0.000
       36800.001           0.000           0.000
       36366.513         471.608         319.317
       37006.237         974.126         319.317
       37099.539        1414.823         141.622
       36800.001           0.000           0.000
       38399.999           0.000           0.000
       37244.532         985.978         341.565
       37006.237         974.126         319.317
       37482.827         997.830         363.813
       39191.316         917.871          60.973
       38399.999           0.000           0.000
       40000.000           0.000           0.000
       39197.105         305.957         267.796
       38855.485         528.331         267.796
       40125.312        1643.514          94.853
       41599.998           0.000           0.000
       41840.942        1855.796         136.688
       41188.751        1166.437         378.084
       40621.549        1090.465         375.584
       41768.204        1295.553         358.951
       41173.310        1773.187         400.295
       41840.942        1855.796         136.688
       41599.998           0.000           0.000
       43200.002           0.000           0.000
       42213.647         618.599         358.951
       41768.204        1295.553         358.951
       43418.644        1867.336         105.233
       43200.002           0.000           0.000
       44800.000           0.000           0.000
       43806.215         622.445         353.201
       43345.797        1245.178         353.201
       34548.701        1811.800         182.351
       37099.539        1414.823         141.622
       36841.038        3085.085         166.196
       36163.093        2103.903         447.869
       35259.394        1701.198         455.049
       36944.645        2415.648         430.153
       35266.437        2210.469         460.329
       48116.282        1628.322         105.306
       49975.028        1831.460         170.075
       48146.017        3166.706         169.232
       49208.280        2125.958         434.372
       49342.957        1762.382         417.087
       49073.602        2489.534         451.656
       10506.534         877.165          85.661
        9502.865        3552.908         200.557
        8231.839        1585.959         125.009
        9413.746        2005.344         434.602
        9156.586        3017.031         445.558
        9145.590        1301.235         415.960
        9729.933        2947.554         448.761
       52954.322        1538.422         140.776
       52800.002           0.000           0.000
       54400.001           0.000           0.000
       53384.775         512.807         330.382
       52906.322        1059.908         330.382
       45576.245        1448.210          95.648
       46228.872        2830.415         157.874
       43557.179        3128.631         150.155
       44619.371        2751.160         441.148
       44963.026        2971.709         448.274
       44275.716        2530.610         434.023
       59004.449        1641.677         135.948
       57600.002           0.000           0.000
       59200.001           0.000           0.000
       58601.484         547.226         340.558
       59065.726        1127.249         340.558
       38196.713        1837.356         116.695
       37099.539        1414.823         141.622
       38399.999           0.000           0.000
       37898.751        1084.060         358.757
       38262.130        1246.102         352.574
       37482.827         997.830         363.813
       37621.092        1615.678         360.936
       60471.826        1510.939         140.290
       59200.001           0.000           0.000
       60799.999           0.000           0.000
       60157.275         503.646         330.963
       60574.452        1038.442         330.963
       25712.931        1511.197          91.835
       25600.029        2863.835         156.207
       23731.335        1792.943         129.454
[...]
POINT_DATA      21936
SCALARS height float 1
LOOKUP_TABLE default
     0.0
     0.0
     0.0
     0.0
   115.9
     0.0
     0.0
   350.9
   350.9
   134.6
     0.0
     0.0
   332.3
   332.3
    96.1
     0.0
     0.0
   376.7
   376.7
   125.0
     0.0
     0.0
   363.0
   395.8
   330.1
   125.0
     0.0
     0.0
   330.1
   330.1
    85.7
   153.6
   200.6
   451.2
   453.7
   448.8
   153.6
     0.0
     0.0
   388.8
   369.0
   408.6
   111.5
     0.0
     0.0
   373.8
   396.2
   351.3
   111.5
     0.0
     0.0
   351.3
   351.3
   138.0
     0.0
     0.0
   364.3
   364.3
    69.3
     0.0
     0.0
   363.6
   363.6
   134.6
   115.9
     0.0
   432.8
   432.8
   129.5
     0.0
     0.0
   351.0
   351.0
    91.8
     0.0
     0.0
   376.7
   376.7
    91.8
     0.0
   132.0
   370.1
   369.0
   335.4
   401.5
   132.0
     0.0
     0.0
   335.4
   335.4
   166.8
     0.0
     0.0
   361.4
   378.1
   344.6
   100.6
   166.8
     0.0
   295.5
   246.3
   344.6
    62.0
   125.1
   163.1
   406.1
   406.1
   182.4
   180.0
   125.1
   286.5
   286.5
    96.1
   156.0
   200.5
   302.2
   281.4
   323.0
   141.6
     0.0
     0.0
   319.3
   319.3
   141.6
     0.0
     0.0
   341.6
   319.3
   363.8
    61.0
     0.0
     0.0
   267.8
   267.8
    94.9
     0.0
   136.7
   378.1
   375.6
   359.0
   400.3
   136.7
     0.0
     0.0
   359.0
   359.0
   105.2
     0.0
     0.0
   353.2
   353.2
   182.4
   141.6
   166.2
   447.9
   455.0
   430.2
   460.3
   105.3
   170.1
   169.2
   434.4
   417.1
   451.7
    85.7
   200.6
   125.0
   434.6
   445.6
   416.0
   448.8
   140.8
     0.0
     0.0
   330.4
   330.4
    95.6
   157.9
   150.2
   441.1
   448.3
   434.0
   135.9
     0.0
     0.0
   340.6
   340.6
   116.7
   141.6
     0.0
   358.8
   352.6
   363.8
   360.9
   140.3
     0.0
     0.0
   331.0
   331.0
    91.8
   156.2
   129.5
   421.9
   434.9
   408.9
   105.3
   114.1
   170.1
   376.6
   417.1
   336.0
   112.2
     0.0
     0.0
   273.5
   273.5
    99.6
   161.3
   200.4
   322.9
   322.9
   322.9
   111.5
   153.6
     0.0
   423.9
   396.2
   408.6
   449.0
   117.0
     0.0
     0.0
   343.2
   316.8
   369.5
   134.6
     0.0
     0.0
   363.2
   388.1
   338.3
    77.3
   183.5
   134.6
   306.1
   306.1
   140.3
   135.9
     0.0
   377.6
   340.6
   414.6
   105.2
   165.8
   140.3
   429.3
   444.4
   414.1
    69.3
   148.3
   127.0
   420.4
   400.4
   440.4
    95.3
   158.2
   148.3
   405.0
   428.9
   381.0
   138.0
   111.5
     0.0
   434.1
   434.1
    85.7
   125.0
     0.0
   416.0
   416.0
   115.9
     0.0
     0.0
   382.1
   350.9
   413.3
   148.3
     0.0
     0.0
   379.0
   403.8
   354.1
    88.8
     0.0
    95.3
   251.1
   251.1
    91.4
     0.0
     0.0
   368.9
   368.9
    91.4
     0.0
   140.8
   372.8
   375.2
   330.4
   405.5
    96.1
   134.6
     0.0
   372.7
   376.7
   332.3
   404.4
    91.4
   140.8
   156.7
   423.0
   440.5
   405.5
   117.0
     0.0
     0.0
   316.8
   316.8
   153.7
   200.6
   153.6
   380.6
   278.3
   456.1
   323.1
   133.7
   140.8
     0.0
   410.4
   377.5
   443.3
   166.8
   132.0
     0.0
   412.0
   378.1
   445.8
   200.7
   200.6
   153.7
   396.3
   323.1
   469.5
   105.2
     0.0
     0.0
   384.3
   384.3
   169.3
     0.0
     0.0
   370.9
   391.3
   350.5
   200.7
   129.5
   156.2
   450.8
   465.1
   434.9
   458.3
   176.9
   148.3
   158.2
   447.3
   456.9
   428.9
   454.0
   171.6
   153.7
   138.0
   445.6
   445.4
   425.9
   455.8
    69.3
   127.0
   171.6
   419.4
   419.4
    62.0
   163.1
   200.2
   438.6
   464.2
   454.3
   406.1
    95.6
     0.0
   147.8
   330.7
   330.9
   312.3
   351.6
   147.8
     0.0
     0.0
   312.3
   312.3
   166.2
   141.6
   116.7
   395.5
   360.9
   430.2
    94.9
    61.0
     0.0
   313.5
   313.5
    94.9
   116.7
    61.0
   358.4
   403.2
   313.5
   200.2
   200.2
   132.0
   454.4
   421.6
   465.6
   469.0
   105.2
   136.7
     0.0
   376.0
   353.2
   398.9
   133.7
     0.0
     0.0
   353.0
   377.5
   328.6
   133.7
     0.0
     0.0
   328.6
   328.6
   105.3
     0.0
   114.1
   336.0
   336.0
   200.4
   156.2
   200.2
   448.8
   454.1
   439.6
   454.6
   161.3
     0.0
     0.0
   380.8
   358.7
   402.9
    94.2
   168.2
   200.3
   322.8
   322.8
   322.8
   200.0
   140.8
   133.7
   381.0
   322.5
   443.3
   322.5
    95.6
   150.2
   105.2
   420.8
   407.7
   434.0
   135.9
   133.7
     0.0
   447.6
   447.6
   117.0
   168.2
     0.0
   399.8
   372.9
   426.7
   134.6
   117.0
     0.0
   408.2
   388.1
   369.5
   439.7
   105.2
   140.3
     0.0
   379.0
   384.3
   331.0
   414.1
   105.3
   157.9
   147.8
   416.4
   430.0
   389.4
   431.0
   200.2
   157.9
   169.2
   444.9
   458.9
   444.6
   426.3
   156.7
   169.2
   170.1
   450.0
   438.8
   451.7
   455.7
    99.6
   200.4
   112.2
   348.4
   322.9
   322.9
   400.7
    94.2
   161.3
     0.0
   419.0
   402.9
   435.0
   200.6
   156.0
   125.0
   452.9
   443.4
   445.6
   469.3
   129.6
     0.0
     0.0
   379.4
   409.7
   349.2
   129.6
     0.0
     0.0
   394.0
   349.2
   438.9
   168.0
   117.0
   134.6
   447.1
   439.7
   454.6
   183.5
   129.6
   126.2
   442.8
   452.5
   416.9
   462.5
   168.0
   200.3
   168.2
   366.5
   449.3
   322.8
   322.8
     0.0
   129.6
     0.0
   396.1
   438.9
   353.3
    96.1
   200.5
   134.6
   352.1
   323.0
   404.4
   323.0
   200.6
   200.6
   153.6
   366.0
   278.3
   453.7
   180.0
   115.9
   134.6
   435.5
   432.8
   438.3
     0.0
     0.0
   115.9
   423.2
   413.3
   433.2
   141.2
   115.9
   180.0
   441.2
   435.2
   447.2
   200.5
   180.0
   134.6
   367.8
   323.0
   438.3
   323.0
   200.5
   180.0
   200.5
   391.7
   460.3
   323.0
   200.7
   158.2
   129.5
   452.1
   433.2
   465.1
   464.1
    91.8
   200.2
   156.2
   433.2
   439.6
   426.9
   200.5
   141.2
   180.0
   457.0
   460.3
   447.2
   469.2
   141.2
     0.0
     0.0
   413.6
   431.5
   395.6
   200.0
   156.7
   140.8
   376.9
   322.5
   440.5
   322.5
   153.7
   153.6
   111.5
   452.5
   449.0
   456.1
   153.7
   111.5
   138.0
   439.8
   434.1
   445.4
    88.8
    95.3
   148.3
   316.1
   381.0
   251.1
    91.8
   129.5
     0.0
   380.4
   376.7
   351.0
   408.9
   200.4
   200.6
   200.7
   373.5
   322.9
   469.3
   322.9
    69.3
   171.6
   138.0
   409.2
   387.1
   425.9
   419.4
   200.2
   200.7
   153.7
   379.8
   322.7
   469.5
   322.7
   200.2
   132.0
   166.8
   449.8
   445.8
   465.6
   437.0
   100.6
   200.2
   166.8
   434.3
   437.0
   431.5
   180.0
   166.2
   200.5
   463.3
   458.6
   461.0
   469.3
   150.2
   136.7
   105.2
   416.6
   434.4
   398.9
    62.0
   200.2
   100.6
   412.9
   431.5
   454.3
   369.5
   200.5
   200.2
   163.1
   462.2
   469.0
   464.2
   452.6
    95.6
   105.2
     0.0
   407.7
   407.7
   181.1
   136.7
   150.2
   439.7
   444.9
   434.4
   180.0
   163.1
   125.1
   432.5
   432.5
   200.4
   200.7
   156.2
   460.7
   454.1
   458.3
   469.5
   176.9
   178.0
   127.0
   458.1
   458.1
   193.1
   116.7
   162.7
   455.2
   463.6
   443.4
   461.7
   200.2
   200.2
   200.2
   469.0
   469.0
   176.9
   127.0
   148.3
   448.6
   456.9
   440.4
    91.4
   156.7
   170.1
   403.6
   368.4
   438.8
   112.2
   200.4
   169.3
   322.9
   322.9
   322.9
   200.3
   133.7
   135.9
   453.4
   437.0
   447.6
   469.1
   200.2
   135.9
   140.3
   353.0
   322.7
   414.6
   322.7
   200.1
   150.2
   157.9
   453.4
   453.2
   448.3
   460.0
    94.2
   200.3
   161.3
   365.4
   322.8
   435.0
   322.8
   200.4
   165.8
   169.3
   388.1
   450.4
   322.9
   322.9
   200.2
   200.1
   157.9
   462.9
   458.9
   460.0
   469.0
   200.2
   156.7
   200.0
   364.4
   453.4
   322.5
   322.5
   200.4
   162.7
   195.5
   366.2
   322.9
   446.3
   322.9
   200.3
   200.0
   133.7
   361.3
   437.0
   322.5
   322.5
   200.2
   200.3
   135.9
   376.1
   322.7
   469.1
   322.7
   165.8
   200.2
   140.3
   367.7
   444.4
   322.7
   322.7
   200.3
   200.2
   200.0
   322.6
   322.6
   322.5
   322.8
   168.0
   168.2
   117.0
   438.0
   426.7
   449.3
   200.2
   161.3
   200.2
   383.9
   322.7
   445.0
   200.2
   200.4
   161.3
   322.8
   322.7
   322.9
   322.7
   200.2
   200.2
   165.8
   395.9
   322.7
   469.0
   194.0
   158.2
   200.7
   461.8
   450.7
   464.1
   469.7
   200.6
   168.0
   134.6
   453.2
   425.5
   454.6
   469.4
   200.3
   200.2
   161.3
   371.4
   322.8
   445.0
   322.8
   200.2
   171.6
   178.0
   459.3
   467.9
   448.1
   465.5
   183.5
   200.6
   134.6
   444.6
   425.5
   463.7
     0.0
   129.6
     0.0
   353.3
   353.3
   200.5
   200.6
   200.5
   469.3
   469.3
   141.0
   200.6
   126.2
   433.7
   464.9
   468.6
   383.9
   200.4
   156.0
   200.4
   393.3
   322.9
   463.6
   152.3
   141.2
   200.5
   457.3
   445.1
   469.2
   462.3
   183.5
   126.2
   200.6
   464.8
   463.7
   468.6
   462.5
     0.0
   126.2
   129.6
   397.4
   416.9
   378.0
   200.7
   200.6
   200.6
   469.3
   469.3
   141.2
     0.0
   115.9
   433.5
   435.2
   433.2
   431.5
   200.5
   200.5
   156.0
   363.8
   281.4
   446.2
   200.4
   156.0
   200.6
   467.0
   469.3
   463.6
   469.3
   200.7
   200.2
   200.4
   379.4
   323.1
   469.2
   323.2
   200.3
   200.7
   200.2
   322.8
   322.8
   322.7
   322.8
   200.5
   200.5
   156.0
   459.8
   466.0
   446.2
   469.3
   200.2
   153.7
   171.6
   461.6
   462.7
   455.8
   467.9
   178.0
   171.6
   127.0
   448.1
   448.1
   180.0
   200.5
   163.1
   456.4
   453.1
   432.5
   469.3
   200.5
   200.5
   163.1
   452.9
   453.1
   452.6
   180.2
   200.5
   200.5
   464.4
   467.2
   469.3
   457.1
   200.2
   200.4
   200.2
   454.6
   454.6
   200.5
   200.2
   200.2
   395.8
   469.0
   322.7
   194.0
   200.7
   200.5
   469.4
   469.4
   469.4
   469.5
   180.0
   200.5
   200.5
   469.3
   469.3
   469.3
   193.1
   166.2
   116.7
   463.6
   463.6
   181.1
   162.7
   136.7
   447.2
   441.8
   444.9
   454.5
   200.3
   200.2
   200.5
   376.5
   322.7
   322.7
   469.3
   181.1
   200.1
   200.3
   466.1
   465.1
   469.0
   464.3
   200.5
   200.4
   200.2
   322.8
   322.9
   322.7
   322.7
   200.5
   200.5
   200.5
   457.7
   469.3
   446.1
   200.2
   200.5
   200.5
   469.1
   469.0
   469.3
   469.0
   200.3
   200.3
   200.3
   322.8
   322.8
   193.1
   200.5
   166.2
   465.0
   461.0
   469.0
   200.5
   200.5
   193.1
   396.0
   469.0
   323.0
   180.2
   148.1
   152.3
   440.8
   429.0
   452.7
   200.2
   200.5
   200.3
   469.1
   469.1
   469.1
   469.1
   200.2
   169.2
   156.7
   454.1
   455.7
   426.3
   469.0
   200.2
   200.2
   156.7
   464.1
   453.4
   469.0
   469.1
   181.1
   200.3
   195.5
   466.1
   467.9
   464.3
   200.3
   200.0
   200.3
   322.6
   322.5
   322.6
   322.8
   200.3
   200.3
   200.2
   322.8
   322.7
   322.8
   200.1
   200.2
   200.2
   395.9
   469.1
   322.6
   200.5
   200.5
   200.5
   469.2
   469.2
   200.5
   200.5
   178.0
   461.8
   451.4
   461.5
   469.3
   200.4
   165.8
   200.4
   382.0
   441.2
   322.9
   200.4
   200.2
   165.8
   461.7
   441.2
   469.0
   469.1
   200.3
   200.3
   200.3
   408.7
   408.7
   200.1
   200.2
   200.2
   322.6
   322.6
   322.6
   200.2
   200.3
   200.2
   365.7
   322.8
   408.7
   200.4
   200.2
   200.3
   395.9
   468.9
   322.8
   200.1
   200.3
   168.0
   322.7
   322.7
   322.8
   322.6
   200.4
   200.2
   200.2
   395.8
   468.9
   322.7
   200.5
   200.2
   200.3
   395.9
   322.7
   469.1
   200.3
   200.2
   200.4
   396.0
   322.7
   469.3
   200.1
   200.4
   200.3
   322.7
   322.7
   322.6
   200.5
   200.1
   168.0
   387.0
   469.2
   322.6
   322.6
   200.4
   200.3
   200.5
   437.1
   408.7
   408.7
   469.4
   200.5
   168.0
   200.6
   469.3
   469.4
   469.2
   469.3
     0.0
   126.2
     0.0
   378.0
   378.0
   141.0
   200.5
   200.6
   393.9
   464.9
   323.0
     0.0
   141.0
   126.2
   383.9
   383.9
   135.5
   141.0
     0.0
   413.7
   413.7
   200.7
   200.7
   200.4
   323.2
   323.2
   323.2
   200.6
   200.5
   200.5
   469.3
   469.3
   200.4
   200.5
   156.0
   394.4
   322.9
   466.0
    80.4
     0.0
     0.0
   216.7
   216.7
    82.6
    80.4
   141.2
   380.4
   415.5
   345.2
   200.4
   200.4
   200.6
   370.3
   322.9
   469.3
   322.9
   200.5
   178.0
   176.9
   459.1
   458.1
   461.5
   457.6
   200.4
   200.7
   200.3
   322.9
   322.8
   322.9
   322.9
   200.2
   178.0
   200.5
   463.1
   451.4
   465.5
   469.1
   200.4
   200.5
   200.4
   469.2
   469.2
   200.5
   200.3
   200.2
   322.8
   322.8
   322.8
   200.4
   200.3
   200.5
   396.1
   322.8
   469.3
   194.0
   200.7
   200.7
   396.4
   469.5
   323.2
   200.5
   200.5
   200.5
   457.7
   446.1
   469.2
   200.5
   200.5
   200.5
   469.2
   469.2
   194.0
   200.5
   176.9
   463.5
   457.6
   469.4
   200.3
   200.5
   200.5
   469.1
   469.2
   469.1
   469.1
   200.7
   200.4
   200.2
   380.1
   323.2
   469.1
   323.1
   200.2
   200.4
   200.2
   395.9
   469.1
   322.7
   200.4
   200.5
   193.1
   351.2
   418.4
   323.0
   323.0
   200.3
   200.2
   200.2
   387.0
   322.7
   322.7
   469.1
   200.2
   200.2
   200.3
   398.0
   469.1
   326.9
   200.4
   193.1
   162.7
   379.5
   322.9
   461.7
   322.9
   200.1
   200.1
   200.2
   469.0
   469.0
   468.9
   200.2
   200.2
   200.3
   322.7
   322.8
   322.7
   200.3
   200.2
   200.3
   322.7
   322.7
   322.6
   200.4
   200.4
   193.1
   370.6
   322.9
   418.4
   200.3
   200.4
   200.3
   381.6
   322.9
   322.9
   469.2
   200.2
   200.2
   200.3
   326.9
   326.9
   200.3
   200.3
   200.5
   469.2
   469.1
   469.2
   469.2
   200.3
   200.4
   195.5
   371.4
   467.9
   322.9
   322.9
   200.1
   200.3
   200.1
   468.9
   469.0
   468.9
   200.1
   200.1
   200.2
   468.9
   468.9
   200.1
   200.1
   200.1
   468.9
   468.9
   200.1
   200.3
   200.1
   395.8
   468.9
   322.6
   200.4
   200.4
   200.4
   399.3
   469.2
   322.9
   322.9
   200.4
   180.2
   200.5
   465.0
   469.3
   457.1
   465.8
   200.1
   200.5
   200.5
   395.9
   322.6
   469.2
   200.5
   200.3
   200.2
   408.7
   408.7
   408.7
   200.2
   200.2
   200.4
   469.1
   469.1
   469.1
   200.3
   200.2
   200.3
   372.9
   322.6
   322.6
   469.1
   135.5
   200.5
   141.0
   349.6
   323.0
   323.0
   413.7
   200.2
   200.5
   200.2
   469.0
   469.0
   200.3
   200.2
   200.4
   469.1
   469.0
   469.1
   469.2
   200.5
   200.4
   200.1
   373.6
   469.3
   322.6
   322.6
   200.4
   200.2
   200.4
   469.1
   469.1
   469.1
   200.2
   200.4
   200.5
   469.2
   469.0
   469.4
   469.1
   200.5
   200.3
   200.5
   469.2
   469.3
   469.1
   469.3
   200.4
   200.3
   200.3
   469.1
   469.2
   469.1
   469.1
   200.3
   200.2
   200.2
   469.0
   469.0
   200.4
   200.6
   200.4
   372.5
   323.1
   323.1
   469.2
   200.2
   200.3
   200.5
   469.1
   469.0
   469.1
   469.1
   200.5
   200.3
   200.4
   469.3
   469.3
   469.3
   469.3
   200.9
   200.1
   200.4
   395.9
   322.6
   469.3
   200.5
   200.5
   200.5
   355.2
   427.4
   323.0
   323.0
   200.5
   200.5
   200.4
   388.9
   323.0
   469.2
   323.0
   135.5
   200.5
   200.5
   393.1
   323.0
   463.3
     0.0
   135.5
     0.0
   430.3
   430.3
   200.5
   200.7
   200.4
   396.1
   469.2
   323.0
   163.1
   200.5
   135.5
   454.5
   460.1
   463.3
   443.4
   180.2
   152.3
   200.5
   460.3
   467.2
   462.3
   452.7
    82.6
     0.0
     0.0
   397.2
   397.2
    87.8
    82.6
   152.3
   383.1
   392.5
   373.8
   200.4
   200.4
   200.4
   322.9
   322.9
   200.4
   200.5
   200.4
   469.3
   469.2
   469.3
   200.6
   200.7
   200.7
   323.1
   323.1
   323.1
   200.2
   200.3
   200.5
   469.1
   469.0
   469.3
   469.0
   200.4
   200.6
   200.7
   323.1
   323.2
   323.1
   323.1
   200.1
   200.4
   200.5
   380.3
   322.6
   469.3
   322.6
   200.3
   200.4
   200.4
   469.2
   469.2
   469.2
   469.2
   200.2
   200.2
   200.2
   468.9
   468.9
   200.6
   200.7
   200.6
   396.2
   469.3
   323.1
   200.3
   200.5
   200.5
   396.1
   323.0
   469.2
   200.2
   200.2
   200.3
   469.0
   469.0
   200.6
   200.6
   200.5
   323.0
   323.0
   323.0
   200.5
   200.6
   200.4
   469.3
   469.2
   469.2
   469.5
   200.2
   200.4
   200.2
   398.0
   469.2
   326.9
   200.1
   200.3
   200.4
   380.7
   322.6
   469.2
   322.6
   200.3
   200.4
   200.3
   375.4
   322.9
   322.9
   469.1
   200.7
   200.5
   200.7
   448.9
   469.5
   469.3
   374.0
   200.6
   200.5
   200.4
   396.1
   323.0
   469.2
   200.5
   200.4
   200.4
   396.0
   469.2
   322.9
   200.2
   200.2
   200.2
   326.9
   326.9
   200.4
   200.4
   200.1
   376.2
   322.6
   322.6
   469.2
   200.2
   200.6
   200.2
   469.0
   469.0
   469.0
   200.1
   200.2
   200.3
   322.6
   322.6
   322.6
   322.6
   200.1
   200.3
   200.3
   395.9
   469.2
   322.6
   200.3
   200.5
   200.4
   388.3
   322.9
   322.9
   469.2
   200.6
   200.4
   200.4
   322.9
   322.9
   200.2
   200.4
   200.2
   397.9
   469.0
   326.9
   200.3
   200.3
   200.2
   373.7
   322.6
   322.6
   469.0
   200.1
   200.1
   200.1
   386.2
   468.9
   322.6
   322.6
   200.1
   200.1
   200.1
   395.8
   322.6
   468.9
   200.1
   200.3
   200.3
   383.6
   469.0
   322.6
   322.6
   200.2
   200.2
   200.4
   469.0
   469.0
   469.0
   200.4
   200.3
   200.3
   427.7
   408.7
   408.7
   469.2
   200.2
   200.5
   200.2
   469.0
   469.0
   469.0
   200.3
   200.3
   200.4
   469.1
   469.0
   469.1
   200.3
   200.4
   200.4
   469.2
   469.2
   469.2
   469.2
   200.2
   200.4
   200.2
   469.0
   468.9
   469.0
   200.5
   200.3
   200.6
   469.3
   469.3
   469.3
   200.4
   200.3
   200.5
   469.2
   469.2
   469.3
   469.2
   200.3
   200.2
   200.3
   469.1
   469.1
   469.1
   200.5
   200.6
   200.4
   469.4
   469.4
   469.3
   200.4
   200.4
   200.4
   440.3
   440.3
   200.3
   200.3
   200.3
   469.0
   469.0
   200.4
   200.6
   200.3
   469.2
   469.2
   469.3
   469.2
   200.4
   200.4
   200.5
   454.7
   469.2
   440.3
   200.9
   200.4
   200.5
   469.2
   469.2
   200.7
   200.7
   200.4
   374.0
   374.0
   200.4
   200.6
   200.4
   469.2
   469.3
   469.2
   469.1
   108.3
   135.5
     0.0
   414.9
   399.5
   430.3
   200.3
   200.5
   163.1
   464.1
   469.2
   460.1
   462.2
   200.3
   200.5
   200.5
   383.5
   469.2
   323.0
   323.0
   108.3
   163.1
   135.5
   421.5
   399.5
   443.4
     0.0
   108.3
     0.0
   396.0
   396.0
   142.1
   108.3
     0.0
   398.8
   401.6
   396.0
   200.3
   200.3
   200.3
   469.1
   469.1
   200.3
   200.5
   200.3
   469.1
   469.1
   469.1
   189.7
   148.1
   180.2
   449.7
   437.6
   461.9
    97.6
    87.8
   160.8
   411.2
   412.9
   409.6
    87.8
     0.0
     0.0
   425.0
   425.0
   189.7
   180.2
   200.5
   466.1
   466.5
   461.9
   469.6
   189.7
   169.1
   160.8
   447.3
   443.2
   451.5
   200.4
   200.3
   200.5
   469.3
   469.3
   469.2
   200.6
   200.4
   200.5
   344.8
   323.0
   323.0
   396.2
   200.4
   200.5
   200.3
   469.2
   469.4
   469.1
   200.4
   200.5
   200.6
   323.1
   323.1
   323.1
   200.4
   200.4
   200.4
   469.2
   469.2
   200.3
   200.3
   200.3
   322.8
   322.8
   200.6
   200.4
   200.4
   432.6
   396.2
   469.1
   200.4
   200.3
   200.1
   394.0
   469.2
   322.6
   322.6
   200.6
   200.5
   200.4
   469.2
   469.3
   469.1
   469.1
   200.2
   200.5
   200.6
   469.1
   469.0
   469.3
   469.0
   200.4
   200.4
   200.4
   469.2
   469.2
   200.2
   200.2
   200.2
   397.9
   326.9
   468.9
   200.2
   200.4
   200.4
   395.9
   469.0
   322.9
   200.2
   200.1
   200.1
   468.9
   468.9
   468.9
   469.0
   200.3
   200.3
   200.5
   446.5
   469.3
   423.7
   200.3
   200.6
   200.5
   469.4
   469.2
   469.5
   469.3
   200.3
   200.6
   200.3
   469.1
   469.1
   469.2
   469.1
   200.4
   200.5