# vtk DataFile Version 3.0
Landscape
ASCII
DATASET UNSTRUCTURED_GRID
POINTS       2328 float
           0.000           0.000           0.000
        1600.000           0.000           0.000
        3200.000           0.000           0.000
        4800.000           0.000           0.000
        6400.000           0.000           0.000
        8000.000           0.000           0.000
        9600.000           0.000           0.000
       11200.000           0.000           0.000
       12800.000           0.000           0.000
       14400.001           0.000           0.000
       16000.000           0.000           0.000
       17600.000           0.000           0.000
       19200.000           0.000           0.000
       20799.999           0.000           0.000
       22400.000           0.000           0.000
       24000.001           0.000           0.000
       25599.999           0.000           0.000
       27200.000           0.000           0.000
       28800.001           0.000           0.000
       30400.000           0.000           0.000
       32000.000           0.000           0.000
       33599.999           0.000           0.000
       35200.000           0.000           0.000
       36800.001           0.000           0.000
       38399.999           0.000           0.000
       40000.000           0.000           0.000
       41599.998           0.000           0.000
       43200.002           0.000           0.000
       44800.000           0.000           0.000
       46399.999           0.000           0.000
       48000.002           0.000           0.000
       49600.000           0.000           0.000
       51199.999           0.000           0.000
       52800.002           0.000           0.000
       54400.001           0.000           0.000
       55999.999           0.000           0.000
       57600.002           0.000           0.000
       59200.001           0.000           0.000
       60799.999           0.000           0.000
       62399.998           0.000           0.000
       64000.001           0.000           0.000
       65599.999           0.000           0.000
       67199.998           0.000           0.000
       68800.001           0.000           0.000
       70400.000           0.000           0.000
       71999.998           0.000           0.000
       73600.001           0.000           0.000
       75200.000           0.000           0.000
       76799.998           0.000           0.000
       78400.002           0.000           0.000
       80000.000           0.000           0.000
           0.000        1600.000           0.000
        1820.535        1836.129         185.277
        4436.497        1560.645         234.923
        8231.839        1585.959         207.340
       11192.297        1979.624         144.059
       14535.388        1860.001          62.132
       17224.315        1919.917         419.117
       20899.237        1802.853         317.955
       23731.335        1792.943         238.915
       27507.238        1603.221         225.880
       30065.602        1613.570         323.918
       33371.579        1994.991          35.298
       37099.539        1414.823         291.071
       38196.713        1837.356          86.069
       41840.942        1855.796         417.884
       43418.644        1867.336          49.539
       49975.028        1831.460         234.271
       52954.322        1538.422         133.618
       55816.240        1531.934         176.492
       59004.449        1641.677          34.550
       60471.826        1510.939         323.631
       63784.513        1656.536         243.427
       67301.210        1771.228         143.541
       70381.695        1920.216         327.903
       72217.113        1448.806          87.878
       75069.462        1621.662         159.953
       78696.327        1722.356         251.394
       80000.000        1600.000           0.000
           0.000        3200.000           0.000
        3274.399        3217.174         511.633
        5160.666        3300.186         225.869
        6043.012        3262.445         122.847
        9502.865        3552.908         322.408
       11056.006        2840.019         210.986
       14606.628        2840.755          89.043
       17562.634        3511.308         217.204
       18833.142        3539.080          58.496
       22026.411        2868.051         276.970
       25600.029        2863.835         100.185
       27192.156        3106.980         326.720
       30375.600        2888.881         256.992
       33224.678        2857.386          48.650
       36841.038        3085.085         151.574
       40238.304        3524.647          79.736
       43557.179        3128.631          77.568
       46228.872        2830.415         147.729
       48146.017        3166.706         412.090
       51153.215        2952.745          56.248
       53124.514        2981.904         243.055
       56001.007        3429.944         465.248
       59307.581        3225.477          61.045
       62124.444        3154.870         363.225
       64132.610        2904.590          90.582
       67439.924        3451.420         537.474
       68998.763        3472.006         156.906
       72219.436        2879.026         145.650
       75532.535        3132.944         351.324
       78652.387        3551.841         175.027
       80000.000        3200.000           0.000
           0.000        4800.000           0.000
        1400.060        4439.660         183.720
        4786.648        4655.285         422.088
       11454.778        4403.585         373.293
       14098.429        4923.032         155.949
       17912.789        5043.475         115.011
       20446.875        4859.061         102.298
       24108.597        4895.159         409.038
       27234.832        4431.193         258.419
       28696.423        4449.033         615.747
       32196.694        4589.490          80.317
       33867.228        4797.771         470.940
       34933.129        4760.558         537.034
       38067.139        5053.208         470.548
       41605.852        4581.133         324.356
       44854.687        5021.321         524.546
       48175.269        4416.823         405.560
       51163.202        5122.950          99.978
       54186.876        4703.411         511.615
       56317.818        4828.699         371.948
       59169.326        5108.954          94.151
       62536.999        4516.819         156.247
       65848.099        4445.450         362.530
       68694.276        4766.024         222.147
       71946.222        4752.098         246.084
       75433.121        5067.460         613.445
       78033.243        4664.320         189.796
       80000.000        4800.000           0.000
           0.000        6400.000           0.000
        2841.623        6773.290         236.598
        6245.685        6376.243         485.590
        7744.385        6030.238         308.252
       11368.686        6592.994         352.975
       14270.010        6704.916         314.421
       17330.427        6370.488         166.493
       19571.144        6573.041         345.666
       22641.152        6627.002         578.310
       23763.572        6012.529         489.062
       27463.089        6427.221         520.489
       30273.002        6504.167         265.422
       33884.178        6077.220         269.341
       35390.886        6255.305         303.106
       38075.664        6205.118         583.952
       40048.604        6389.405         152.864
       43255.311        6307.072         171.416
       46126.564        6231.346         442.332
       48285.057        6596.744         349.482
       51294.080        6157.575         123.312
       54250.249        6543.358         687.730
       57921.865        6224.397         193.739
       59558.312        6004.572         112.743
       62425.662        6132.109         206.648
       65724.696        6341.122         581.730
       68956.079        6674.843         512.222
       72380.520        6490.972         459.431
       75318.037        6459.550         540.448
       78160.955        6114.578         236.538
       80000.000        6400.000           0.000
           0.000        8000.000           0.000
        3576.129        8217.635         230.151
        5061.593        7652.754         354.063
        8105.944        7856.844         494.300
       11121.498        7830.817         527.513
       14531.786        8256.985         538.973
       16036.950        7761.051         423.382
       19087.239        8020.414         545.118
       22626.171        7850.784         377.363
       25653.785        8135.625         505.410
       28733.316        8014.857         397.357
       30647.917        7622.140         140.906
       31669.813        8123.016         425.216
       35544.551        8083.612         401.624
       38771.621        7743.567         207.379
       41941.639        8315.419         541.984
       44649.095        8053.831         327.408
       48005.993        8300.872         594.832
       51584.272        8303.210         422.124
       52951.115        7723.006         367.301
       55834.828        8389.314         474.041
       58839.904        7674.993         149.815
       60484.772        8202.290         486.735
       63784.723        8145.830         294.568
       67326.420        8175.747         735.440
       68571.734        8073.207         729.124
       72193.925        8373.058         734.751
       73714.578        7878.720         429.179
       77044.523        8185.581         155.889
       78448.742        7636.455          85.741
       80000.000        8000.000           0.000
           0.000        9600.000           0.000
        3060.393        9702.503         101.620
        6737.398        9989.628         225.137
[...]
POINT_DATA       2328
SCALARS height float 1
LOOKUP_TABLE default
     0.0
     0.0
     0.0
     0.0
     0.0
     0.0
     0.0
     0.0
     0.0
     0.0
     0.0
     0.0
     0.0
     0.0
     0.0
     0.0
     0.0
     0.0
     0.0
     0.0
     0.0
     0.0
     0.0
     0.0
     0.0
     0.0
     0.0
     0.0
     0.0
     0.0
     0.0
     0.0
     0.0
     0.0
     0.0
     0.0
     0.0
     0.0
     0.0
     0.0
     0.0
     0.0
     0.0
     0.0
     0.0
     0.0
     0.0
     0.0
     0.0
     0.0
     0.0
     0.0
   185.3
   234.9
   207.3
   144.1
    62.1
   419.1
   318.0
   238.9
   225.9
   323.9
    35.3
   291.1
    86.1
   417.9
    49.5
   234.3
   133.6
   176.5
    34.5
   323.6
   243.4
   143.5
   327.9
    87.9
   160.0
   251.4
     0.0
     0.0
   511.6
   225.9
   122.8
   322.4
   211.0
    89.0
   217.2
    58.5
   277.0
   100.2
   326.7
   257.0
    48.7
   151.6
    79.7
    77.6
   147.7
   412.1
    56.2
   243.1
   465.2
    61.0
   363.2
    90.6
   537.5
   156.9
   145.6
   351.3
   175.0
     0.0
     0.0
   183.7
   422.1
   373.3
   155.9
   115.0
   102.3
   409.0
   258.4
   615.7
    80.3
   470.9
   537.0
   470.5
   324.4
   524.5
   405.6
   100.0
   511.6
   371.9
    94.2
   156.2
   362.5
   222.1
   246.1
   613.4
   189.8
     0.0
     0.0
   236.6
   485.6
   308.3
   353.0
   314.4
   166.5
   345.7
   578.3
   489.1
   520.5
   265.4
   269.3
   303.1
   584.0
   152.9
   171.4
   442.3
   349.5
   123.3
   687.7
   193.7
   112.7
   206.6
   581.7
   512.2
   459.4
   540.4
   236.5
     0.0
     0.0
   230.2
   354.1
   494.3
   527.5
   539.0
   423.4
   545.1
   377.4
   505.4
   397.4
   140.9
   425.2
   401.6
   207.4
   542.0
   327.4
   594.8
   422.1
   367.3
   474.0
   149.8
   486.7
   294.6
   735.4
   729.1
   734.8
   429.2
   155.9
    85.7
     0.0
     0.0
   101.6
   225.1
   486.3
   384.6
   743.9
   513.8
   316.9
   764.0
   830.0
   467.7
   172.4
   841.3
   613.4
   268.5
   605.6
   678.0
   457.8
   870.5
   232.2
   584.8
   848.4
   321.1
   688.0
   625.1
   696.1
   978.0
   888.8
   410.1
   271.8
     0.0
     0.0
   407.7
   401.0
   402.1
   827.2
   738.9
   767.8
   357.7
   645.1
   661.1
   207.5
   889.3
   693.5
   434.8
   621.7
   603.5
   765.4
   935.9
   418.9
   978.0
   734.9
   542.3
   237.4
   563.4
   633.9
  1008.2
   528.2
   588.6
   483.1
   468.2
   212.4
     0.0
     0.0
   583.0
   623.3
   600.8
   746.5
   802.3
   954.2
   796.7
   808.3
   722.0
  1024.0
   579.9
   335.4
   304.9
   637.2
   719.5
   662.9
   874.2
   536.8
   747.7
   676.6
   488.2
   984.7
   337.1
   317.9
   598.0
   911.3
  1071.4
   399.9
   315.9
   182.3
   129.1
    81.5
     0.0
     0.0
   138.9
   280.8
   286.7
   388.8
   573.5
   815.9
  1162.8
   944.5
  1245.5
   643.0
   765.4
   470.2
  1053.5
  1071.3
  1057.2
  1103.7
   861.1
  1197.5
  1081.3
   919.6
   626.5
   402.1
  1107.8
  1034.1
   798.1
   588.4
   456.5
   332.2
     0.0
     0.0
    74.0
   146.0
   233.4
   427.5
  1103.4
  1157.3
  1295.3
  1500.4
  1183.7
  1098.0
   940.0
   762.4
   992.9
  1360.3
  1353.0
  1363.2
  1407.3
  1189.1
  1108.8
   935.3
   656.6
   819.9
  1220.6
   875.0
   933.9
   704.8
   603.5
   229.4
   328.7
     0.0
     0.0
   356.3
   524.2
   619.0
   834.8
   996.8
  1342.0
  1483.5
  1500.4
  1500.4
  1240.8
  1258.4
  1147.0
  1219.3
  1337.9
  1432.5
  1476.1
  1457.3
  1500.3
  1262.7
  1192.0
  1091.0
   943.7
  1199.1
   606.1
   328.6
   503.2
   384.2
    54.7
     0.0
     0.0
   427.6
   252.1
   360.4
   573.1
   632.5
  1044.7
  1449.8
  1500.4
  1500.4
  1500.4
  1471.8
  1457.8
  1500.3
  1500.3
  1495.1
  1500.2
  1500.3
  1500.3
  1500.3
  1446.9
  1388.7
  1232.8
  1217.9
   802.7
   741.5
   222.1
   130.0
   351.3
     0.0
     0.0
    57.8
   113.6
   216.1
   271.2
   310.6
   719.6
  1440.6
  1500.4
  1500.4
  1500.4
  1500.4
  1500.3
  1500.3
  1500.4
  1500.1
  1500.2
  1500.3
  1500.3
  1500.3
  1500.3
  1500.2
  1423.7
  1379.3
  1048.5
   397.8
   599.5
   396.8
   472.6
   260.6
     0.0
     0.0
   306.8
   254.2
   400.9
   395.3
   916.8
   818.1
  1494.6
  1500.4
  1500.4
  1500.3
  1500.4
  1500.4
  1500.4
  1500.4
  1500.4
  1500.1
  1500.1
  1500.4
  1500.3
  1500.1
  1500.1
  1490.5
   953.5
   910.7
   790.4
   827.5
   527.2
   358.8
   115.6
     0.0
     0.0
   261.9
   576.0
   676.9
   839.5
   808.8
  1127.5
  1242.4
  1500.4
  1500.4
  1500.3
  1500.3
  1500.3
  1500.4
  1500.4
  1500.4
  1500.2
  1500.3
  1500.3
  1500.4
  1500.4
  1500.4
  1500.1
  1500.1
  1500.1
  1417.5
   924.8
   844.6
   589.9
   352.3
   244.7
     0.0
     0.0
   129.1
   277.5
   455.7
   940.8
   756.2
  1058.3
  1376.3
  1500.6
  1500.6
  1500.3
  1500.3
  1500.3
  1500.5
  1500.4
  1500.4
  1500.2
  1500.3
  1500.3
  1500.3
  1500.3
  1500.4
  1500.1
  1498.6
  1396.9
  1063.3
   531.8
   263.4
   170.0
   127.6
    71.0
     0.0
     0.0
   188.6
   504.1
   511.5
   433.4
   768.3
  1061.8
  1335.2
  1345.9
  1500.6
  1500.4
  1500.3
  1500.3
  1500.5
  1500.4
  1500.4
  1500.3
  1500.3
  1500.3
  1500.3
  1500.3
  1500.1
  1481.8
  1327.7
  1063.1
   787.7
   544.1
   332.3
   367.3
     0.0
     0.0
   392.5
   351.3
   149.7
   236.1
   394.5
   677.2
  1251.9
  1500.4
  1500.4
  1500.3
  1500.3
  1500.5
  1500.4
  1500.4
  1500.3
  1500.2
  1500.3
  1500.3
  1500.1
  1464.9
  1300.3
   961.5
   908.9
   567.8
   359.0
   536.3
   153.3
     0.0
     0.0
   304.8
    77.0
   538.1
   400.9
   606.6
   782.6
  1063.7
  1389.4
  1500.4
  1500.4
  1500.3
  1500.5
  1500.3
  1500.3
  1500.3
  1500.3
  1500.4
  1500.3
  1500.1
  1500.3
  1500.3
  1472.7
   897.0
   744.8
   373.6
   229.6
   125.9
   424.3
   343.5
     0.0
     0.0
    47.7
    89.8
   156.0
   207.8
   467.9
   930.9
  1440.8
  1500.3
  1500.3
  1500.3
  1500.3
  1500.3
  1500.5
  1500.5
  1500.3
  1500.3
  1500.3
  1500.4
  1500.3
  1500.3
  1500.3
  1500.3
  1500.3
  1262.0
   928.9
  1042.2
   633.6
   553.0
    86.7
   277.4
     0.0
     0.0
   235.7
   300.9
   397.0
   389.1
   640.8
  1150.3
  1500.3
  1500.3
  1500.3
  1500.3
  1500.3
  1500.5
  1500.3
  1500.3
  1500.4
  1500.4
  1500.4
  1500.4
  1500.3
  1500.3
  1500.3
  1402.5
  1314.7
  1073.9
   880.8
   570.3
   108.2
    27.2
     0.0
     0.0
   202.6
   342.0
   511.0
   691.8
   759.3
  1249.3
  1469.6
  1500.3
  1500.2
  1500.2
  1500.5
  1500.5
  1500.3
  1500.4
  1500.4
  1500.4
  1500.4
  1500.3
  1500.3
  1500.3
  1500.3
  1475.8
  1455.6
  1046.0
   388.3
   301.3
   150.3
   317.1
   328.4
     0.0
     0.0
   271.1
   280.6
   319.9
   509.9
   425.7
   702.1
  1266.1
  1500.3
  1500.2
  1500.2
  1500.5
  1500.5
  1500.3
  1500.4
  1500.4
  1500.3
  1500.4
  1500.4
  1500.3
  1500.3
  1500.4
  1330.8
   733.6
   671.1
   462.1
   563.4
   638.9
   126.2
     0.0
     0.0
    48.0
    94.8
   144.0
   179.1
   351.8
   729.4
  1267.9
  1500.3
  1500.4
  1500.4
  1500.5
  1500.3
  1500.4
  1500.2
  1500.3
  1500.4
  1500.4
  1500.3
  1500.4
  1439.0
  1108.9
   975.3
   699.6
   764.7
   499.0
   286.9
     0.0
     0.0
   196.0
   392.1
   318.1
   527.7
   292.3
   723.0
  1204.2
  1412.7
  1500.4
  1500.4
  1500.4
  1500.5
  1500.4
  1500.4
  1500.4
  1500.4
  1500.4
  1500.2
  1500.4
  1500.2
  1500.4
  1500.4
  1500.4
  1046.4
   794.4
   502.5
   391.0
   501.8
   362.5
   128.3
     0.0
     0.0
   483.9
   389.1
   354.4
   564.9
   636.9
   493.7
   666.3
   905.5
  1361.8
  1448.4
  1500.4
  1500.5
  1500.4
  1500.4
  1500.4
  1500.4
  1500.2
  1500.2
  1500.2
  1500.2
  1500.4
  1235.2
   921.9
   465.3
   326.5
   226.9
   171.2
   466.4
   198.1
     0.0
     0.0
   227.0
   333.7
   172.7
   496.2
   926.4
   966.7
   859.2
   909.8
  1180.1
  1493.8
  1500.5
  1500.4
  1500.4
  1500.4
  1500.4
  1500.3
  1500.3
  1500.3
  1500.2
  1500.3
  1500.3
  1500.3
  1223.0
   836.3
   678.1
   653.2
   475.3
    95.1
   203.7
     0.0
     0.0
    83.1
   395.9
   319.6
   476.5
  1068.7
  1151.4
  1264.3
  1398.9
  1500.5
  1500.5
  1500.5
  1500.4
  1500.4
  1500.4
  1500.4
  1500.4
  1500.3
  1500.3
  1500.4
  1500.3
  1500.3
  1500.3
  1500.3
  1430.4
   929.9
   634.1
   314.6
   203.6
   102.1
    71.7
    41.7
     0.0
     0.0
    68.2
   224.4
   713.4
   820.7
   915.2
   759.4
  1042.7
  1357.2
  1473.5
  1500.5
  1500.5
  1500.4
  1500.4
  1500.4
  1500.4
  1500.4
  1500.3
  1500.3
  1500.3
  1500.3
  1500.3
  1500.3
  1500.3
  1388.8
  1052.0
   786.6
   357.9
   278.7
   376.5
   213.2
   208.7
     0.0
     0.0
   205.8
   460.9
   488.8
   629.8
   505.0
  1086.5
  1500.4
  1500.5
  1500.4
  1500.4
  1500.4
  1500.4
  1500.3
  1500.3
  1500.3
  1500.4
  1500.4
  1500.4
  1500.2
  1500.2
  1371.4
   960.7
   802.5
   420.0
   492.1
   311.9
     0.0
     0.0
   204.8
   498.3
   237.6
   261.4
   822.2
  1275.7
  1423.4
  1500.4
  1500.3
  1500.4
  1500.4
  1500.2
  1500.2
  1500.3
  1500.3
  1500.3
  1500.4
  1500.4
  1500.4
  1500.4
  1500.5
  1500.2
  1357.1
  1098.0
  1003.1
   626.9
   444.3
   287.6
     0.0
     0.0
   140.6
   307.4
   311.0
   141.2
   204.3
   653.8
   937.3
  1443.0
  1500.4
  1500.3
  1500.4
  1500.4
  1500.4
  1500.3
  1500.3
  1500.4
  1500.4
  1500.4
  1500.4
  1500.4
  1500.5
  1500.1
  1500.2
  1026.7
   500.1
   277.2
   163.7
    75.1
     0.0
     0.0
    28.1
    67.8
    87.7
   423.8
   272.9
   452.9
   816.8
  1351.1
  1500.4
  1500.4
  1500.4
  1500.4
  1500.4
  1500.3
  1500.2
  1500.4
  1500.4
  1500.4
  1500.4
  1500.2
  1497.5
  1483.3
  1405.3
  1050.8
   713.3
   511.1
   608.6
   553.1
   404.7
     0.0
     0.0
   350.9
   231.8
   252.2
   758.0
   571.1
   659.8
   719.6
  1368.4
  1485.0
  1500.4
  1500.4
  1500.4
  1500.4
  1500.3
  1500.3
  1500.4
  1500.3
  1500.4
  1500.4
  1500.4
  1500.2
  1500.3
  1348.2
   706.3
   490.8
   256.3
   434.0
    98.3
    50.6
     0.0
     0.0
   361.1
   559.2
   514.4
   835.8
   906.7
  1023.8
  1331.7
  1500.2
  1435.4
  1500.4
  1500.4
  1500.5
  1500.3
  1500.3
  1500.3
  1500.3
  1500.3
  1500.3
  1500.4
  1500.1
  1500.3
  1500.3
  1500.3
  1292.9
  1073.2
   503.8
   296.2
   149.2
   411.1
     0.0
     0.0
    71.6
   465.0
   572.1
   533.3
   791.3
  1243.0
  1271.6
  1500.2
  1500.2
  1336.8
  1500.4
  1500.2
  1500.5
  1500.3
  1500.3
  1500.3
  1500.3
  1500.1
  1500.1
  1500.3
  1500.3
  1500.3
  1095.8
   733.9
   638.4
   247.2
   284.1
     0.0
     0.0
    98.1
   170.7
   270.5
   504.6
   745.7
  1294.4
  1500.2
  1361.0
  1076.2
  1460.0
  1500.2
  1500.3
  1500.3
  1500.2
  1500.2
  1500.2
  1500.2
  1500.2
  1500.2
  1500.2
  1500.3
  1500.3
  1400.7
  1146.0
   693.4
   673.4
   531.1
   497.5
   232.3
     0.0
     0.0
   182.5
   502.8
   531.5
   424.6
   830.1
   590.7
  1072.2
  1410.9
  1412.6
  1344.2
   904.3
  1197.5
  1435.4
  1500.2
  1445.2
  1500.2
  1500.2
  1500.2
  1447.0
  1500.2
  1500.1
  1500.3
  1455.2
  1224.3
   890.3
   335.4
   242.7
   142.3
   237.4
   394.0
     0.0
     0.0
   108.3
   622.9
   534.1
   734.6
  1103.6
  1352.0
  1241.1
  1057.0
  1103.8
   571.3
   771.2
  1315.3
  1404.2
  1468.1
  1500.4
  1500.4
  1500.4
  1500.4
  1267.0
  1325.1
  1500.1
  1500.3
  1392.2
  1005.6
   714.4
   630.8
   489.5
    68.2
    37.4
     0.0
     0.0
    54.2
   389.5
   195.5
   352.6
   715.6
  1071.7
   894.8
   889.3
   662.5
   832.5
   385.7
   884.6
  1188.6
  1042.7
  1333.3
  1384.2
  1354.0
  1258.3
  1309.6
  1088.8
  1500.1
  1500.3
  1453.1
  1288.9
   788.8
   385.4
   227.7
   178.1
   140.3
   295.8
     0.0
     0.0
   192.2
   536.5
   546.5
   640.1
   906.7
   871.7
   621.3
   472.0
   652.2
   473.9
   964.2
   793.4
   669.1
   952.5
  1128.0
   899.6
   633.4
  1108.4
   768.4
  1393.7
  1384.5
  1500.3
  1312.6
  1202.8
   752.0
   623.8
   277.9
   394.7
   173.7
     0.0
     0.0
   274.0
   406.2
   315.1
   927.2
   946.3
   843.2
   726.7
   673.9
   317.7
   525.2
   241.1
   796.7
  1127.1
   440.9
   518.6
   767.4
   973.6
   612.4
   848.1
   572.1
   981.8
  1331.8
  1013.2
  1083.3
  1092.9
   993.2
   966.1
   402.6
   372.0
   161.9
     0.0
     0.0
    94.9
   478.2
   535.7
   703.5
   768.1
   582.0
   644.6
   483.0
   609.8
   202.2
   533.2
   961.5
   491.6
   622.4
   772.7
  1034.5
   687.9
   545.4
   656.0
   364.5
   857.9
   714.5
   999.8
   591.3
   805.6
   820.4
   745.7
   385.5
     0.0
     0.0
   212.2
   170.4
   309.8
   528.0
   753.5
   261.1
   386.8
   518.0
   213.1
   149.0
   334.8
   951.4
   724.7
   213.3
   479.3
   334.0
   714.6
   324.6
   237.5
   511.2
   456.6
   914.6
   683.3
   716.4
   404.6
   661.8
   444.4
   180.9
   225.2
     0.0
     0.0
   447.6
   246.1
   657.3
   329.2
   651.4
   193.0
   466.1
   142.6
   394.7
   612.3
   723.4
   165.2
   192.9
   783.4
   528.5
   146.6
   245.6
   488.6
   347.0
   487.8
   696.1
   544.0
   287.3
   856.7
   785.3
   406.3
    99.2
     0.0
     0.0
   168.5
   439.2
   332.5
   249.3
   351.6
   238.6
   546.5
   454.4
    94.3
   468.9
   610.1
   691.8
   325.3
   120.1
   496.3
   406.8
   297.1
   132.8
   336.8
   227.5
   275.0
   208.0
   267.5
   216.8
   520.0
   388.1
   444.0
   241.7
     0.0
     0.0
   246.4
   435.4
   393.1
   277.0
   128.5
   414.2
   412.7
   146.0
   527.1
    64.9
   197.1
   379.5
   370.2
   383.4
    85.8
   247.4
   539.4
   202.5
    75.4
   415.0
   153.6
   406.4
   146.8
   583.1
   133.4
   765.5
   278.1
   355.9
   272.0
     0.0
     0.0
   344.6
   173.0
   535.1
    75.3
   420.2
   326.3
   369.0
    57.4
   252.9
   258.0
    43.9
   131.7
   214.1
   291.6
   381.9
   257.1
    59.1
   482.0
   112.8
   319.9
    42.5
   456.3
   373.9
    88.6
   143.6
   352.7
    75.6
   410.7
   286.9
   122.2
   233.9
   328.9
     0.0
     0.0
   377.0
   254.6
   189.4
   283.7
   170.3
   302.5
   145.0
   268.5
    31.3
   297.0
   157.4
   130.4
    36.9
   280.7
    73.3
   297.0
   225.0
   111.8
    54.7
    80.5
    65.8
   214.1
   151.2
   125.7
   317.7
   413.8
   176.7
     0.0
     0.0
     0.0
     0.0
     0.0
     0.0
     0.0
     0.0
     0.0
     0.0
     0.0
     0.0
     0.0
     0.0
     0.0
     0.0
     0.0
     0.0
     0.0
     0.0
     0.0
     0.0
     0.0
     0.0
     0.0
     0.0
     0.0
     0.0
     0.0
     0.0
     0.0
     0.0
     0.0
     0.0
     0.0
     0.0
     0.0
     0.0
     0.0
     0.0
     0.0
     0.0
     0.0
     0.0
     0.0
     0.0
     0.0
     0.0
     0.0
     0.0
     0.0
     0.0
   108.9
   488.6
   215.6
   659.7
   251.7
   519.2
   330.8
   732.5
  1325.4
  1500.4
   713.1
  1500.3
  1500.3
  1430.2
   100.8
   560.9
  1100.4
  1500.3
  1500.4
  1466.2
  1500.2
   529.9
  1500.4
  1256.0
  1500.2
  1500.3
  1500.3
  1351.0
  1285.9
   382.2
  1107.4
  1103.5
   410.9
   599.4
   456.9
   335.7
    60.2
   264.1
    15.9
    40.8
    35.2
    72.6
    43.3
    60.1
    28.7
   123.1
    50.2
    35.9
    73.0
   152.6
    27.2
   161.4
    86.7
    95.4
   111.3
    50.0
   168.7
   101.9
   179.1
    38.6
   145.6
    35.7
   138.0
    24.9
   170.1
   169.5
    26.4
   108.9
    66.7
    32.4
    84.7
   150.6
   275.5
   147.4
    25.0
    97.5
   285.7
    24.4
    89.0
   180.3
   105.1
   101.2
    41.4
    20.4
    91.8
   136.4
   146.0
    35.4
   165.5
   126.9
   163.8
   154.8
    33.9
   134.8
   110.2
    87.5
    85.3
   123.5
    43.7
   112.5
   170.0
    45.6
    76.7
   129.9
   113.2
   146.2
    86.0
    37.9
    27.6
    61.1
   145.6
    22.1
    38.6
    58.1
   144.4
   148.4
    99.6
    80.5
    63.9
    15.7
   128.9
    75.4
    64.1
    18.4
   153.2
    35.5
   152.6
   298.1
   147.7
   150.7
   140.4
   129.6
    25.3
   176.4
    27.0
   611.6
   428.7
   650.1
   168.9
   526.6
   246.1
   863.8
   615.7
   440.6
   554.5
   956.1
  1499.3
  1161.7
  1100.0
  1372.7
  1428.2
  1446.3
   480.4
   794.2
   719.1
   520.7
  1500.3
   501.6
  1500.4
  1500.3
   834.9
  1500.2
  1500.4
  1500.4
  1500.4
  1169.1
  1426.4
  1500.4
  1500.3
  1234.7
  1288.9
  1500.4
  1500.4
   956.1
   348.3
   190.9
  1500.1
  1382.2
  1451.3
  1345.1
  1365.3
   860.9
  1495.3
  1413.5
  1498.3
   494.3
   962.7
   349.9
  1030.5
  1253.4
   570.1
   895.6
   367.6
   392.9
   442.1
   526.6
   388.9
   375.8
   586.2
   456.4
   629.4
   198.8
  1500.4
  1131.7
  1315.5
  1452.9
  1420.0
  1022.2
   312.0
   513.4
   227.7
  1166.4
  1490.9
  1224.4
   522.0
   703.4
   376.4
  1500.3
  1500.3
  1031.1
  1500.2
  1500.4
  1500.4
   668.2
   771.7
  1500.3
  1500.3
  1500.2
   644.7
  1478.3
   862.9
  1394.0
   742.9
   378.5
   427.6
  1049.0
   494.4
   360.3
    78.1
  1500.4
   190.6
   166.8
   216.1
   140.1
    77.1
   159.6
   397.5
  1245.6
  1500.3
   135.7
   182.3
   185.5
    98.6
   141.9
    46.3
   209.8
   160.1
   102.6
   289.2
   186.4
   457.0
   115.3
   445.2
    57.4
    67.8
   285.3
   154.7
    82.1
   226.5
   483.0
   133.5
   144.4
   299.6
   254.5
   193.0
   164.7
   335.6
   277.1
   460.3
    84.6
   224.6
   311.0
   235.6
   389.3
   200.4
   216.2
   255.4
   387.1
   110.2
   190.8
    70.4
   126.2
   327.6
   314.3
   178.4
   218.5
   194.4
   131.9
   233.1
   102.4
   112.5
   123.2
   422.7
   140.6
   116.0
   439.1
   101.6
   185.5
   195.2
   323.5
   140.0
   397.9
   135.7
   281.2
   150.7
   383.4
   191.7
   191.4
   102.4
   415.7
   270.3
   122.6
   493.7
   342.6
   176.7
   518.0
   532.6
   472.2
   192.0
   118.4
   291.5
   261.0
   309.6
   553.0
   125.0
   372.3
   107.1
   291.0
   194.3
   103.9
   135.8
   183.0
   322.8
   129.3
   213.7
   489.0
   105.1
   313.1
   197.1
   112.8
   361.5
   164.0
   153.9
   205.0
   364.3
   100.2
   176.2
   117.5
   244.5
   580.1
   268.3
   125.0
    93.9
   209.3
   379.7
   141.4
   242.5
   442.4
   520.3
   390.4
   493.9
   262.6
   219.9
   538.3
   306.0
   521.3
   469.8
   406.3
   165.4
   248.5
   197.1
   167.5
   294.7
   292.7
   186.3
   177.0
   239.2
   134.1
   122.8
   259.7
   170.9
   297.5
   250.3
   483.9
   203.8
   194.2
   295.5
   562.1
   331.1
   184.1
   304.7
   178.4
   153.2
   198.6
   292.1
   327.8
   175.7
   321.5
   214.2
   433.4
   358.0
   414.7
   256.7
   414.8
   182.3
   474.3
   297.9
   420.3
   587.6
   525.9
   168.8
   213.5
   265.8
   374.0
   243.0
   338.8
   212.0
   484.4
   398.0
   355.6
   323.4
   234.9
   178.7
   271.9
   322.3
   763.6
   309.4
   295.0
   522.1
   493.2
   188.7
   411.8
   190.3
   279.8
   249.1
   588.9
   314.5
   385.6
   203.3
   371.7
   510.0
   382.6
   352.1
   515.8
   622.5
   213.4
   364.4
   436.8
   277.9
   603.9
   345.0
   354.5
   276.5
   314.4
   286.2
   214.9
   378.9
   251.1
   406.1
   258.1
   400.4
   605.0
   604.1
   473.3
   264.5
   211.2
   389.5
   610.6
   679.3
   636.2
   596.5
   290.2
   272.4
   717.6
   655.4
   236.5
   542.3
   339.5
   548.7
   310.7
   321.6
   448.9
   337.6
   495.2
   452.6
   249.9
   417.5
   502.6
   259.8
   251.6
   191.8
   460.5
   406.1
   351.9
   478.1
   740.4
   315.0
   546.8
   575.9
   624.7
   603.9
   551.0
   681.0
   543.5
   302.0
   598.7
   637.4
   371.8
   796.9
   482.7
   463.3
   346.5
   775.2
   376.6
   330.5
   496.0
   707.5
   604.7
   723.1
   337.8
   628.2
   529.7
   517.3
   541.3
   837.9
   709.2
   275.4
   566.6
   448.7
   489.3
   647.4
   327.7
   490.6
   716.1
   311.9
   600.3
   290.9
   262.2
   259.6
   669.8
   400.1
   609.9
   632.2
   766.0
   801.1
   482.5
   700.1
   462.8
   506.8
   467.8
   325.7
   407.4
   454.4
   566.2
   655.1
   479.0
   426.8
   751.7
   509.4
   733.3
   444.1
   567.5
   704.3
   511.3
   320.7
   488.5
   280.4
   739.2
   465.9
   410.1
   564.9
   337.3
   514.6
   584.2
   703.8
   610.2
   749.8
   654.5
   676.4
   411.1
   767.2
   372.0
   834.0
   589.7
   712.1
   642.0
   371.6
   618.5
   926.7
   503.7
   489.0
   617.9
   935.7
   821.8
   654.0
   637.1