# vtk DataFile Version 3.0
Landscape
ASCII
DATASET UNSTRUCTURED_GRID
POINTS       2289 float
           0.000           0.000           0.000
        1600.000           0.000           0.000
        3200.000           0.000           0.000
        4800.000           0.000           0.000
        6400.000           0.000           0.000
        8000.000           0.000           0.000
        9600.000           0.000           0.000
       11200.000           0.000           0.000
       12800.000           0.000           0.000
       14400.001           0.000           0.000
       16000.000           0.000           0.000
       17600.000           0.000           0.000
       19200.000           0.000           0.000
       20799.999           0.000           0.000
       22400.000           0.000           0.000
       24000.001           0.000           0.000
       25599.999           0.000           0.000
       27200.000           0.000           0.000
       28800.001           0.000           0.000
       30400.000           0.000           0.000
       32000.000           0.000           0.000
       33599.999           0.000           0.000
       35200.000           0.000           0.000
       36800.001           0.000           0.000
       38399.999           0.000           0.000
       40000.000           0.000           0.000
       41599.998           0.000           0.000
       43200.002           0.000           0.000
       44800.000           0.000           0.000
       46399.999           0.000           0.000
       48000.002           0.000           0.000
       49600.000           0.000           0.000
       51199.999           0.000           0.000
       52800.002           0.000           0.000
       54400.001           0.000           0.000
       55999.999           0.000           0.000
       57600.002           0.000           0.000
       59200.001           0.000           0.000
       60799.999           0.000           0.000
       62399.998           0.000           0.000
       64000.001           0.000           0.000
       65599.999           0.000           0.000
       67199.998           0.000           0.000
       68800.001           0.000           0.000
       70400.000           0.000           0.000
       71999.998           0.000           0.000
       73600.001           0.000           0.000
       75200.000           0.000           0.000
       76799.998           0.000           0.000
       78400.002           0.000           0.000
       80000.000           0.000           0.000
           0.000        1600.000           0.000
        1820.535        1836.129         182.142
        4436.497        1560.645         234.212
        8231.839        1585.959         205.793
       11192.297        1979.624         142.637
       14535.388        1860.001          62.108
       17224.315        1919.917         405.580
       20899.237        1802.853         309.836
       23731.335        1792.943         224.071
       27507.238        1603.221         223.386
       30065.602        1613.570         336.188
       33371.579        1994.991          37.116
       37099.539        1414.823         308.117
       38196.713        1837.356          83.350
       41840.942        1855.796         391.681
       43418.644        1867.336          53.472
       49975.028        1831.460         247.946
       52954.322        1538.422         132.285
       55816.240        1531.934         174.747
       59004.449        1641.677          36.575
       60471.826        1510.939         318.726
       63784.513        1656.536         251.826
       67301.210        1771.228         139.803
       70381.695        1920.216         324.108
       72217.113        1448.806          88.194
       75069.462        1621.662         160.339
       78696.327        1722.356         250.210
       80000.000        1600.000           0.000
           0.000        3200.000           0.000
        3274.399        3217.174         490.136
        5160.666        3300.186         235.702
        6043.012        3262.445         123.326
        9502.865        3552.908         321.538
       11056.006        2840.019         208.583
       14606.628        2840.755          89.124
       17562.634        3511.308         225.687
       18833.142        3539.080          61.207
       22026.411        2868.051         274.873
       25600.029        2863.835         100.372
       27192.156        3106.980         332.393
       30375.600        2888.881         253.790
       33224.678        2857.386          51.220
       36841.038        3085.085         147.337
       40238.304        3524.647          85.829
       43557.179        3128.631          83.458
       46228.872        2830.415         146.925
       48146.017        3166.706         398.644
       51153.215        2952.745          57.036
       53124.514        2981.904         240.527
       56001.007        3429.944         460.687
       59307.581        3225.477          65.206
       62124.444        3154.870         350.094
       64132.610        2904.590          90.468
       67439.924        3451.420         532.918
       68998.763        3472.006         156.862
       72219.436        2879.026         146.239
       75532.535        3132.944         355.377
       78652.387        3551.841         174.702
       80000.000        3200.000           0.000
           0.000        4800.000           0.000
        1400.060        4439.660         183.520
        4786.648        4655.285         451.105
       11454.778        4403.585         370.142
       14098.429        4923.032         157.328
       17912.789        5043.475         119.794
       20446.875        4859.061         109.725
       24108.597        4895.159         421.908
       27234.832        4431.193         259.979
       28696.423        4449.033         618.610
       32196.694        4589.490          85.320
       33867.228        4797.771         475.207
       34933.129        4760.558         537.900
       38067.139        5053.208         459.292
       41605.852        4581.133         337.311
       44854.687        5021.321         512.380
       48175.269        4416.823         406.770
       51163.202        5122.950         103.482
       54186.876        4703.411         509.472
       56317.818        4828.699         383.086
       59169.326        5108.954         101.762
       62536.999        4516.819         157.171
       65848.099        4445.450         348.989
       68694.276        4766.024         223.459
       71946.222        4752.098         248.358
       75433.121        5067.460         613.043
       78033.243        4664.320         189.767
       80000.000        4800.000           0.000
           0.000        6400.000           0.000
        2841.623        6773.290         236.218
        6245.685        6376.243         491.123
        7744.385        6030.238         311.218
       11368.686        6592.994         365.046
       14270.010        6704.916         319.636
       17330.427        6370.488         173.867
       19571.144        6573.041         326.166
       22641.152        6627.002         578.165
       23763.572        6012.529         495.854
       27463.089        6427.221         537.038
       30273.002        6504.167         285.036
       33884.178        6077.220         289.342
       35390.886        6255.305         300.090
       38075.664        6205.118         586.323
       40048.604        6389.405         165.056
       43255.311        6307.072         184.901
       46126.564        6231.346         448.402
       48285.057        6596.744         369.934
       51294.080        6157.575         128.949
       54250.249        6543.358         751.869
       57921.865        6224.397         204.621
       59558.312        6004.572         122.628
       62425.662        6132.109         209.432
       65724.696        6341.122         559.065
       68956.079        6674.843         515.603
       72380.520        6490.972         467.664
       75318.037        6459.550         552.338
       78160.955        6114.578         232.042
       80000.000        6400.000           0.000
           0.000        8000.000           0.000
        3576.129        8217.635         222.957
        5061.593        7652.754         341.061
        8105.944        7856.844         506.314
       11121.498        7830.817         550.274
       14531.786        8256.985         554.324
       16036.950        7761.051         448.629
       19087.239        8020.414         552.652
       22626.171        7850.784         402.015
       25653.785        8135.625         543.722
       28733.316        8014.857         437.166
       30647.917        7622.140         153.451
       31669.813        8123.016         476.166
       35544.551        8083.612         404.644
       38771.621        7743.567         227.254
       41941.639        8315.419         581.431
       44649.095        8053.831         339.802
       48005.993        8300.872         619.737
       51584.272        8303.210         479.170
       52951.115        7723.006         388.337
       55834.828        8389.314         504.593
       58839.904        7674.993         165.390
       60484.772        8202.290         505.789
       63784.723        8145.830         304.626
       67326.420        8175.747         763.573
       68571.734        8073.207         760.780
       72193.925        8373.058         740.986
       73714.578        7878.720         433.915
       77044.523        8185.581         155.133
       78448.742        7636.455          85.297
       80000.000        8000.000           0.000
           0.000        9600.000           0.000
        3060.393        9702.503         100.450
        6737.398        9989.628         222.801
[...]
POINT_DATA       2289
SCALARS height float 1
LOOKUP_TABLE default
     0.0
     0.0
     0.0
     0.0
     0.0
     0.0
     0.0
     0.0
     0.0
     0.0
     0.0
     0.0
     0.0
     0.0
     0.0
     0.0
     0.0
     0.0
     0.0
     0.0
     0.0
     0.0
     0.0
     0.0
     0.0
     0.0
     0.0
     0.0
     0.0
     0.0
     0.0
     0.0
     0.0
     0.0
     0.0
     0.0
     0.0
     0.0
     0.0
     0.0
     0.0
     0.0
     0.0
     0.0
     0.0
     0.0
     0.0
     0.0
     0.0
     0.0
     0.0
     0.0
   182.1
   234.2
   205.8
   142.6
    62.1
   405.6
   309.8
   224.1
   223.4
   336.2
    37.1
   308.1
    83.3
   391.7
    53.5
   247.9
   132.3
   174.7
    36.6
   318.7
   251.8
   139.8
   324.1
    88.2
   160.3
   250.2
     0.0
     0.0
   490.1
   235.7
   123.3
   321.5
   208.6
    89.1
   225.7
    61.2
   274.9
   100.4
   332.4
   253.8
    51.2
   147.3
    85.8
    83.5
   146.9
   398.6
    57.0
   240.5
   460.7
    65.2
   350.1
    90.5
   532.9
   156.9
   146.2
   355.4
   174.7
     0.0
     0.0
   183.5
   451.1
   370.1
   157.3
   119.8
   109.7
   421.9
   260.0
   618.6
    85.3
   475.2
   537.9
   459.3
   337.3
   512.4
   406.8
   103.5
   509.5
   383.1
   101.8
   157.2
   349.0
   223.5
   248.4
   613.0
   189.8
     0.0
     0.0
   236.2
   491.1
   311.2
   365.0
   319.6
   173.9
   326.2
   578.2
   495.9
   537.0
   285.0
   289.3
   300.1
   586.3
   165.1
   184.9
   448.4
   369.9
   128.9
   751.9
   204.6
   122.6
   209.4
   559.1
   515.6
   467.7
   552.3
   232.0
     0.0
     0.0
   223.0
   341.1
   506.3
   550.3
   554.3
   448.6
   552.7
   402.0
   543.7
   437.2
   153.5
   476.2
   404.6
   227.3
   581.4
   339.8
   619.7
   479.2
   388.3
   504.6
   165.4
   505.8
   304.6
   763.6
   760.8
   741.0
   433.9
   155.1
    85.3
     0.0
     0.0
   100.4
   222.8
   544.0
   410.2
   771.5
   616.7
   389.7
   780.2
   869.3
   541.3
   191.4
   903.0
   638.1
   305.7
   631.2
   752.7
   465.2
   928.6
   280.1
   680.7
   961.6
   350.1
   707.5
   655.4
   768.4
   977.7
   915.8
   412.7
   273.9
     0.0
     0.0
   402.9
   412.2
   416.9
   868.1
   837.6
   865.3
   516.3
   776.3
   756.3
   237.5
   908.1
   730.0
   524.1
   744.8
   699.8
   804.2
  1011.7
   536.6
  1070.3
   768.8
   583.6
   274.1
   649.7
   712.4
  1059.6
   580.0
   595.3
   550.6
   488.0
   203.2
     0.0
     0.0
   569.3
   611.3
   623.1
   739.9
   831.2
  1031.4
   960.7
   979.0
   955.4
  1174.8
   829.6
   480.6
   389.3
   857.7
   860.4
   916.0
  1036.3
   731.9
   936.1
   781.9
   705.1
  1166.5
   422.4
   408.7
   735.8
   995.5
  1122.8
   467.3
   349.4
   186.9
   130.4
    81.5
     0.0
     0.0
   136.1
   274.6
   300.6
   406.7
   658.2
   982.4
  1285.4
  1222.2
  1316.9
   893.7
   890.5
   668.1
  1203.4
  1230.7
  1278.3
  1196.1
  1084.4
  1261.4
  1135.6
  1137.0
   834.9
   566.4
  1194.1
  1132.5
   923.1
   612.3
   495.4
   325.9
     0.0
     0.0
    78.4
   155.5
   254.4
   550.3
  1190.1
  1298.6
  1400.4
  1400.4
  1323.3
  1220.9
  1061.8
  1013.0
  1160.0
  1400.3
  1374.5
  1400.3
  1400.3
  1320.3
  1183.3
  1130.9
   910.8
  1039.0
  1363.0
  1146.2
   998.1
   749.5
   610.7
   231.5
   323.7
     0.0
     0.0
   349.8
   533.1
   641.9
   868.3
  1213.1
  1400.3
  1400.4
  1400.4
  1400.4
  1400.4
  1320.6
  1256.4
  1321.5
  1356.6
  1400.2
  1400.2
  1400.3
  1400.3
  1353.8
  1288.3
  1233.3
  1221.1
  1352.2
   861.7
   423.3
   564.0
   392.3
    56.2
     0.0
     0.0
   437.2
   249.1
   405.8
   586.8
   762.2
  1242.6
  1400.3
  1400.4
  1400.4
  1400.4
  1400.3
  1400.3
  1400.3
  1400.3
  1400.2
  1400.2
  1400.3
  1400.3
  1400.3
  1400.2
  1398.9
  1375.3
  1324.1
  1028.5
   842.1
   249.1
   138.5
   346.6
     0.0
     0.0
    59.2
   118.4
   240.1
   330.9
   409.3
  1015.1
  1400.3
  1400.4
  1400.4
  1400.4
  1400.4
  1400.3
  1400.3
  1400.4
  1400.1
  1400.2
  1400.3
  1400.3
  1400.3
  1400.3
  1400.2
  1398.1
  1384.4
  1148.9
   493.3
   621.3
   429.2
   490.2
   258.5
     0.0
     0.0
   304.3
   261.2
   431.5
   454.8
  1039.4
  1059.9
  1400.3
  1400.4
  1400.4
  1400.3
  1400.4
  1400.4
  1400.4
  1400.4
  1400.4
  1400.1
  1400.1
  1400.4
  1400.3
  1400.1
  1400.1
  1400.4
  1124.3
   944.0
   856.2
   836.8
   520.0
   352.4
   113.7
     0.0
     0.0
   251.9
   553.6
   777.6
   839.3
   889.6
  1306.1
  1337.4
  1400.4
  1400.4
  1400.3
  1400.3
  1400.3
  1400.4
  1400.4
  1400.4
  1400.2
  1400.3
  1400.3
  1400.4
  1400.4
  1400.4
  1400.1
  1400.1
  1400.1
  1400.4
  1216.9
   886.3
   627.7
   369.5
   242.0
     0.0
     0.0
   128.5
   275.6
   460.4
   960.7
   914.7
  1247.4
  1397.3
  1400.6
  1400.6
  1400.3
  1400.3
  1400.3
  1400.5
  1400.4
  1400.4
  1400.2
  1400.3
  1400.3
  1400.3
  1400.3
  1400.4
  1400.1
  1400.1
  1400.4
  1240.8
   719.7
   289.2
   177.6
   131.8
    72.5
     0.0
     0.0
   176.4
   529.9
   596.1
   557.6
   963.7
  1269.8
  1379.4
  1400.2
  1400.6
  1400.4
  1400.3
  1400.3
  1400.5
  1400.4
  1400.4
  1400.3
  1400.3
  1400.3
  1400.3
  1400.3
  1400.1
  1400.1
  1400.4
  1133.7
   841.1
   615.5
   352.1
   366.8
     0.0
     0.0
   391.6
   322.5
   178.9
   298.4
   606.1
  1069.3
  1400.2
  1400.4
  1400.4
  1400.3
  1400.3
  1400.5
  1400.4
  1400.4
  1400.3
  1400.2
  1400.3
  1400.3
  1400.1
  1400.1
  1400.1
  1280.3
  1001.7
   640.3
   407.6
   518.8
   150.3
     0.0
     0.0
   333.9
    88.7
   538.0
   473.4
   615.0
   819.3
  1291.5
  1400.2
  1400.4
  1400.4
  1400.3
  1400.5
  1400.3
  1400.3
  1400.3
  1400.3
  1400.4
  1400.3
  1400.1
  1400.3
  1400.3
  1400.1
  1243.8
  1123.4
   631.2
   307.0
   153.7
   455.7
   332.3
     0.0
     0.0
    53.2
    96.0
   163.8
   220.4
   537.3
  1023.2
  1400.2
  1400.3
  1400.3
  1400.3
  1400.3
  1400.3
  1400.5
  1400.5
  1400.3
  1400.3
  1400.3
  1400.4
  1400.3
  1400.3
  1400.3
  1400.3
  1400.3
  1372.3
  1289.4
  1263.8
   739.3
   542.0
   103.3
   275.7
     0.0
     0.0
   231.9
   299.5
   455.9
   467.1
   793.4
  1257.4
  1400.3
  1400.3
  1400.3
  1400.3
  1400.3
  1400.5
  1400.3
  1400.3
  1400.4
  1400.4
  1400.4
  1400.4
  1400.3
  1400.3
  1400.3
  1393.8
  1397.9
  1236.5
   978.5
   595.3
   121.1
    30.9
     0.0
     0.0
   199.2
   336.3
   548.7
   717.9
   873.0
  1348.2
  1400.4
  1400.3
  1400.2
  1400.2
  1400.5
  1400.5
  1400.3
  1400.4
  1400.4
  1400.4
  1400.4
  1400.3
  1400.3
  1400.3
  1400.3
  1399.4
  1400.4
  1192.4
   513.6
   370.3
   169.2
   326.8
   319.8
     0.0
     0.0
   293.3
   294.2
   330.7
   556.6
   569.8
   897.4
  1338.3
  1400.3
  1400.2
  1400.2
  1400.5
  1400.5
  1400.3
  1400.4
  1400.4
  1400.3
  1400.4
  1400.4
  1400.3
  1400.3
  1400.4
  1387.0
  1089.1
   749.4
   530.1
   590.3
   633.9
   124.0
     0.0
     0.0
    53.0
   105.6
   164.3
   209.3
   465.4
   988.6
  1355.0
  1400.3
  1400.4
  1400.4
  1400.5
  1400.3
  1400.4
  1400.2
  1400.3
  1400.4
  1400.4
  1400.3
  1400.4
  1400.4
  1298.1
  1044.8
   762.0
   752.8
   494.8
   278.7
     0.0
     0.0
   189.6
   441.8
   352.0
   539.9
   404.0
  1017.8
  1300.9
  1400.3
  1400.4
  1400.4
  1400.4
  1400.5
  1400.4
  1400.4
  1400.4
  1400.4
  1400.4
  1400.2
  1400.4
  1400.2
  1400.4
  1400.4
  1400.4
  1229.9
   987.4
   610.1
   434.7
   548.1
   358.6
   126.4
     0.0
     0.0
   470.1
   382.7
   367.4
   624.0
   914.1
   816.8
  1032.9
  1222.8
  1400.3
  1400.3
  1400.4
  1400.5
  1400.4
  1400.4
  1400.4
  1400.4
  1400.2
  1400.2
  1400.2
  1400.2
  1400.4
  1312.1
  1136.3
   656.3
   418.9
   259.6
   186.9
   483.7
   192.4
     0.0
     0.0
   210.1
   393.1
   171.1
   514.5
   970.5
  1204.8
  1155.1
  1302.5
  1328.1
  1400.3
  1400.5
  1400.4
  1400.4
  1400.4
  1400.4
  1400.3
  1400.3
  1400.3
  1400.2
  1400.3
  1400.3
  1400.3
  1376.1
  1137.2
   762.1
   717.4
   483.1
    99.9
   220.0
     0.0
     0.0
    82.3
   412.0
   324.8
   530.5
  1110.0
  1345.8
  1400.3
  1383.6
  1400.5
  1400.5
  1400.5
  1400.4
  1400.4
  1400.4
  1400.4
  1400.4
  1400.3
  1400.3
  1400.4
  1400.3
  1400.3
  1400.3
  1400.3
  1400.3
  1110.0
   818.7
   388.8
   227.5
   109.2
    75.1
    43.5
     0.0
     0.0
    67.7
   222.3
   730.2
   830.1
   968.1
   950.3
  1280.5
  1400.3
  1396.7
  1400.5
  1400.5
  1400.4
  1400.4
  1400.4
  1400.4
  1400.4
  1400.3
  1400.3
  1400.3
  1400.3
  1400.3
  1400.3
  1400.3
  1400.3
  1151.7
   928.4
   439.2
   327.0
   352.2
   208.2
   204.9
     0.0
     0.0
   204.3
   467.9
   544.9
   773.7
   725.4
  1296.7
  1400.4
  1400.5
  1400.4
  1400.4
  1400.4
  1400.4
  1400.3
  1400.3
  1400.3
  1400.4
  1400.4
  1400.4
  1400.2
  1400.2
  1379.1
  1132.4
   859.7
   437.1
   481.0
   310.8
     0.0
     0.0
   203.7
   493.4
   265.2
   322.0
   894.2
  1356.4
  1400.4
  1400.4
  1400.3
  1400.4
  1400.4
  1400.2
  1400.2
  1400.3
  1400.3
  1400.3
  1400.4
  1400.4
  1400.4
  1400.4
  1400.5
  1400.2
  1378.6
  1262.4
  1074.0
   677.6
   515.4
   271.2
     0.0
     0.0
   141.5
   302.5
   371.3
   158.3
   241.6
   846.6
  1200.1
  1400.4
  1400.4
  1400.3
  1400.4
  1400.4
  1400.4
  1400.3
  1400.3
  1400.4
  1400.4
  1400.4
  1400.4
  1400.4
  1400.5
  1400.1
  1400.2
  1198.8
   694.4
   347.3
   192.1
    84.7
     0.0
     0.0
    30.2
    73.7
    96.0
   437.6
   357.1
   731.7
  1135.3
  1400.3
  1400.4
  1400.4
  1400.4
  1400.4
  1400.4
  1400.3
  1400.2
  1400.4
  1400.4
  1400.4
  1400.4
  1400.2
  1400.3
  1400.3
  1400.3
  1253.8
   754.5
   541.6
   630.9
   567.1
   375.2
     0.0
     0.0
   337.5
   251.8
   269.3
   771.8
   729.8
  1014.3
  1039.3
  1398.4
  1400.3
  1400.4
  1400.4
  1400.4
  1400.4
  1400.3
  1400.3
  1400.4
  1400.3
  1400.4
  1400.4
  1400.4
  1400.2
  1400.3
  1380.6
   817.6
   555.1
   262.4
   430.8
    97.0
    49.6
     0.0
     0.0
   347.3
   554.3
   567.6
   897.8
  1069.4
  1265.4
  1379.1
  1400.2
  1399.9
  1400.4
  1400.4
  1400.5
  1400.3
  1400.3
  1400.3
  1400.3
  1400.3
  1400.3
  1400.4
  1400.1
  1400.3
  1400.3
  1400.3
  1309.0
  1118.7
   543.5
   303.2
   148.2
   393.6
     0.0
     0.0
    74.2
   509.0
   631.2
   559.8
   913.2
  1375.6
  1365.7
  1400.2
  1400.2
  1396.2
  1400.4
  1400.2
  1400.5
  1400.3
  1400.3
  1400.3
  1400.3
  1400.1
  1400.1
  1400.3
  1400.3
  1400.3
  1359.4
   793.3
   621.9
   248.2
   282.1
     0.0
     0.0
   102.5
   183.2
   305.6
   697.6
  1026.1
  1374.3
  1400.2
  1397.5
  1352.6
  1400.4
  1400.2
  1400.3
  1400.3
  1400.2
  1400.2
  1400.2
  1400.2
  1400.2
  1400.2
  1400.2
  1400.3
  1400.3
  1394.0
  1330.3
   961.3
   718.6
   574.8
   532.2
   222.7
     0.0
     0.0
   177.8
   515.7
   556.4
   465.6
   863.0
   729.1
  1190.6
  1400.2
  1400.2
  1371.7
  1325.2
  1257.6
  1400.2
  1400.2
  1400.3
  1400.2
  1400.2
  1400.2
  1400.3
  1400.2
  1400.1
  1400.3
  1399.3
  1336.2
  1025.2
   456.4
   304.3
   167.3
   264.8
   382.8
     0.0
     0.0
   110.6
   624.3
   578.4
   810.0
  1211.7
  1388.2
  1280.4
  1318.5
  1286.3
   996.9
   982.6
  1352.6
  1400.2
  1400.2
  1400.4
  1400.4
  1400.4
  1400.4
  1400.3
  1357.7
  1400.1
  1400.3
  1400.3
  1164.9
   713.1
   642.2
   514.1
    74.9
    41.0
     0.0
     0.0
    54.8
   375.2
   202.9
   393.3
   859.3
  1200.2
  1097.8
  1037.1
   885.6
   993.5
   611.4
  1117.3
  1324.7
  1307.2
  1400.2
  1400.4
  1400.4
  1340.0
  1347.0
  1251.4
  1400.1
  1400.3
  1400.3
  1327.9
   925.3
   437.6
   237.0
   183.9
   145.9
   292.7
     0.0
     0.0
   187.9
   569.9
   564.1
   755.1
  1033.2
  1015.1
   764.5
   617.3
   701.4
   666.3
  1129.7
   998.5
   929.7
  1164.1
  1335.8
  1097.9
   912.3
  1211.7
  1016.2
  1400.1
  1400.3
  1400.3
  1373.9
  1284.9
   880.6
   647.4
   284.9
   394.2
   171.9
     0.0
     0.0
   271.2
   420.9
   320.3
   916.2
  1065.4
   866.1
   898.0
   781.1
   372.3
   588.7
   308.4
   884.0
  1193.5
   585.6
   746.6
   948.3
  1163.0
   938.2
  1009.3
   786.6
  1147.6
  1400.3
  1185.5
  1152.6
  1226.6
  1015.5
   973.4
   416.4
   370.1
   161.1
     0.0
     0.0
    94.4
   478.9
   552.4
   768.6
   815.9
   641.9
   687.8
   559.4
   624.5
   246.2
   595.5
  1003.9
   591.2
   738.7
   822.5
  1085.6
   721.4
   645.7
   733.4
   481.7
   911.3
   888.9
  1121.1
   778.0
   923.3
   856.2
   722.4
   402.1
   572.7
     0.0
     0.0
   213.0
   169.6
   311.1
   549.3
   780.0
   288.8
   424.3
   505.1
   236.9
   170.7
   378.5
   980.9
   779.0
   248.5
   526.9
   406.9
   808.9
   353.2
   272.2
   545.2
   567.1
   986.6
   762.6
   759.9
   458.4
   729.2
   471.2
   182.6
   219.9
     0.0
     0.0
   430.9
   246.0
   672.9
   341.0
   643.8
   203.3
   504.8
   157.7
   399.1
   612.0
   814.1
   184.5
   212.7
   793.9
   545.3
   168.6
   256.9
   544.4
   405.6
   584.2
   756.1
   573.3
   307.3
   868.8
   789.4
   406.2
    99.6
     0.0
     0.0
   166.5
   427.9
   359.3
   247.2
   367.4
   238.7
   503.2
   488.4
   105.2
   499.8
   622.2
   690.7
   351.1
   130.9
   483.6
   408.5
   301.7
   140.5
   371.9
   247.4
   300.3
   240.8
   274.7
   224.9
   536.4
   396.5
   442.1
   241.3
     0.0
     0.0
   246.7
   434.2
   386.4
   280.8
   128.0
   432.2
   449.5
   147.1
   526.0
    71.9
   209.4
   375.3
   364.6
   412.3
    92.9
   241.6
   538.1
   205.4
    81.5
   442.2
   652.9
   164.2
   404.8
   165.8
   568.0
   134.6
   769.2
   279.2
   356.5
   271.2
     0.0
     0.0
   344.3
   171.9
   542.8
    75.0
   431.9
   322.7
   345.9
    58.6
   239.7
   277.8
    48.5
   128.1
   209.3
   286.5
   373.0
   252.3
    63.9
   480.8
   111.1
   326.7
    45.8
   444.9
   370.0
    94.3
   147.7
   354.6
    75.8
   408.6
   287.5
   122.2
   234.3
   328.9
     0.0
     0.0
   376.2
   255.3
   188.4
   281.2
   163.7
   297.7
   138.8
   263.1
    34.4
   295.0
   157.4
   127.9
    40.0
   276.1
    72.3
   295.2
   222.8
   110.0
    57.9
    81.6
    72.3
   206.0
   150.4
   125.6
   312.4
   425.2
   176.4
     0.0
     0.0
     0.0
     0.0
     0.0
     0.0
     0.0
     0.0
     0.0
     0.0
     0.0
     0.0
     0.0
     0.0
     0.0
     0.0
     0.0
     0.0
     0.0
     0.0
     0.0
     0.0
     0.0
     0.0
     0.0
     0.0
     0.0
     0.0
     0.0
     0.0
     0.0
     0.0
     0.0
     0.0
     0.0
     0.0
     0.0
     0.0
     0.0
     0.0
     0.0
     0.0
     0.0
     0.0
     0.0
     0.0
     0.0
     0.0
     0.0
     0.0
     0.0
     0.0
   117.1
   475.0
   227.1
   656.4
   257.4
   573.0
   401.4
   951.5
  1400.3
  1400.4
   758.3
  1400.3
  1400.3
  1400.1
   117.9
   585.3
  1329.8
  1400.3
  1400.4
  1400.4
  1400.2
   485.8
  1400.4
  1368.5
  1400.2
  1400.3
  1400.3
  1389.9
  1328.5
   468.8
  1214.3
  1259.2
   417.4
   722.2
   627.8
   465.0
   355.7
    59.8
   251.9
    16.7
    39.5
    35.1
    71.1
    43.1
    60.5
    29.8
   122.6
    50.2
    38.9
    72.6
   150.6
    27.3
   157.7
    86.6
    95.3
   108.6
    49.7
   167.8
    98.4
   178.9
    38.4
   143.4
    38.0
   136.9
    25.0
   167.5
   167.7
    27.1
   105.5
    66.6
    33.1
    80.2
   151.5
   265.8
   144.2
    27.8
    96.0
   269.1
    26.9
    86.5
   178.8
   102.4
   120.7
    40.9
    21.2
    90.3
   136.7
   139.1
    39.3
   157.9
   124.6
   158.8
   151.4
    34.5
   134.4
   106.7
    86.1
    84.4
   122.8
    43.6
   112.5
   166.6
    45.8
    76.0
   129.8
   113.3
   146.2
    85.6
    37.8
    28.1
    59.2
   143.9
    23.8
    38.6
    58.2
   144.5
   148.4
   100.1
    80.1
    62.0
    17.2
   128.5
    75.5
    62.9
    19.9
   152.6
    38.7
   150.8
   274.8
   144.7
   149.3
   139.8
   129.2
    24.8
   172.5
    27.2
   598.7
   440.6
   656.3
   184.4
   552.1
   311.4
   927.2
   653.5
   505.5
   634.5
  1175.7
  1400.2
  1364.8
  1270.3
  1375.7
  1385.8
  1392.4
   535.1
  1089.5
   838.7
   531.6
  1400.3
   547.6
  1400.4
  1400.4
   899.5
  1400.2
  1400.4
  1400.4
  1400.4
  1255.7
  1389.9
  1400.4
  1400.3
  1271.6
  1375.9
  1400.4
  1400.4
   950.8
   379.2
   193.8
  1400.1
  1400.3
  1400.3
  1400.2
  1400.2
  1362.0
   892.6
  1400.3
  1398.8
  1400.3
   497.1
   996.9
   340.2
  1064.0
  1332.0
   586.5
   913.5
   451.7
   400.1
   466.9
   565.0
   391.2
   370.6
   588.2
   461.5
   636.8
   202.4
  1400.4
  1288.2
  1334.3
  1400.3
  1390.7
  1171.8
   325.0
   534.1
   259.9
  1256.8
  1400.2
  1306.2
   520.8
   739.6
   400.4
  1400.3
  1400.3
  1040.2
  1400.2
  1400.4
  1400.4
   947.3
  1015.2
  1400.3
  1400.3
  1400.2
   831.6
  1400.3
  1119.5
  1400.1
   923.6
   393.3
   436.1
  1239.6
   502.5
   360.4
    78.2
  1400.4
   200.5
   170.8
   224.6
   138.1
    80.2
   159.6
   449.6
  1312.3
  1400.3
   135.1
   181.4
   184.2
    98.3
   140.6
    50.0
   221.6
   166.5
   114.2
   286.3
   186.5
   434.8
   117.9
   446.2
    67.1
    75.9
   280.6
   154.7
    83.8
   223.7
   491.3
   136.5
   148.5
   306.7
   254.7
   193.6
   165.8
   335.5
   278.0
   446.9
    87.3
   220.6
   303.4
   232.3
   374.3
   195.3
   215.1
   246.7
   364.2
   116.7
   189.5
    77.9
   124.8
   321.2
   311.9
   177.2
   224.8
   191.3
   131.2
   231.8
   108.6
   121.1
   129.9
   392.4
   140.1
   133.1
   411.6
   116.1
   189.2
   202.3
   324.3
   150.5
   388.5
   143.8
   281.0
   154.9
   359.6
   197.1
   197.6
   107.9
   426.1
   269.2
   126.2
   489.9
   339.0
   174.1
   518.3
   505.5
   435.6
   191.8
   133.3
   308.4
   262.9
   319.5
   560.9
   147.9
   384.5
   119.4
   288.2
   205.6
   110.5
   147.5
   183.3
   323.1
   137.7
   217.3
   463.5
   112.6
   311.1
   215.0
   124.7
   429.5
   176.9
   159.7
   216.3
   372.8
   110.2
   168.5
   254.4
   132.1
   248.1
   578.6
   271.6
   135.9
   103.1
   220.3
   382.3
   149.4
   259.5
   452.0
   503.8
   390.1
   507.2
   174.2
   285.7
   219.0
   539.4
   316.2
   495.1
   476.4
   434.4
   181.6
   251.6
   212.1
   186.8
   278.9
   303.1
   199.9
   195.7
   258.9
   146.7
   132.7
   270.7
   185.5
   311.2
   273.6
   479.8
   214.9
   215.0
   311.4
   553.8
   362.0
   222.2
   307.8
   192.6
   190.0
   227.7
   297.7
   337.1
   195.8
   336.2
   233.5
   438.9
   351.6
   432.2
   271.7
   423.4
   198.5
   473.7
   301.3
   453.1
   595.2
   534.4
   192.6
   256.5
   284.2
   410.9
   255.8
   354.6
   225.4
   532.8
   404.4
   402.5
   340.4
   263.5
   216.1
   300.1
   354.1
   756.1
   338.5
   317.4
   542.2
   514.9
   240.6
   414.8
   204.9
   303.9
   294.0
   589.8
   361.9
   412.9
   229.6
   394.7
   527.2
   415.9
   346.9
   531.7
   664.6
   251.6
   396.4
   468.4
   312.7
   604.5
   364.9
   402.4
   297.7
   346.6
   321.8
   260.2
   397.7
   287.6
   429.1
   297.7
   437.4
   671.4
   651.5
   531.3
   300.5
   233.5
   410.6
   676.5
   671.0
   672.4
   603.9
   335.8
   324.2
   764.1
   680.5
   291.2
   599.6
   406.6
   628.1
   386.8
   382.3
   465.0
   403.9
   528.0
   492.5
   336.4
   479.8
   555.7
   325.0
   322.7
   236.8
   545.5
   468.9
   435.8
   502.2
   768.6
   455.2
   623.5
   658.7
   679.0
   607.3
   583.1
   832.6
   568.0
   419.4
   666.8
   691.8
   492.5
   845.1
   572.1
   538.6
   472.3
   787.3
   480.9
   342.7
   521.9
   732.1
   648.9
   765.9
   445.7
   682.5
   626.2
   617.7
   632.9
   892.1
   763.8
   330.8
   578.2
   587.4
   612.9
   812.8
   451.7
   626.4
   775.5
   416.1
   685.4
   442.7
   331.6
   309.5
   785.3
   532.7
   663.6
   733.3
   828.3
   875.0
   651.6
   787.3
   599.5
   642.4
   661.6
   407.8
   476.4
   534.0
   671.0
   751.0
   638.9
   596.6
   771.6
   670.5
   818.5
   666.7
   726.6
   765.1
   712.8
   472.9
   640.5
   281.9
   848.2
   768.8
   789.3
   515.3
   486.3
  1081.8
   766.5
   508.6
   707.9
   722.2
   838.1
   708.5
   889.8
   742.9
   890.3
   608.1
   873.0
   506.0
   929.6
   747.6
   892.7
   756.3
   570.0