# vtk DataFile Version 3.0
Landscape
ASCII
DATASET UNSTRUCTURED_GRID
POINTS       2381 float
           0.000           0.000           0.000
        1600.000           0.000           0.000
        3200.000           0.000           0.000
        4800.000           0.000           0.000
        6400.000           0.000           0.000
        8000.000           0.000           0.000
        9600.000           0.000           0.000
       11200.000           0.000           0.000
       12800.000           0.000           0.000
       14400.001           0.000           0.000
       16000.000           0.000           0.000
       17600.000           0.000           0.000
       19200.000           0.000           0.000
       20799.999           0.000           0.000
       22400.000           0.000           0.000
       24000.001           0.000           0.000
       25599.999           0.000           0.000
       27200.000           0.000           0.000
       28800.001           0.000           0.000
       30400.000           0.000           0.000
       32000.000           0.000           0.000
       33599.999           0.000           0.000
       35200.000           0.000           0.000
       36800.001           0.000           0.000
       38399.999           0.000           0.000
       40000.000           0.000           0.000
       41599.998           0.000           0.000
       43200.002           0.000           0.000
       44800.000           0.000           0.000
       46399.999           0.000           0.000
       48000.002           0.000           0.000
       49600.000           0.000           0.000
       51199.999           0.000           0.000
       52800.002           0.000           0.000
       54400.001           0.000           0.000
       55999.999           0.000           0.000
       57600.002           0.000           0.000
       59200.001           0.000           0.000
       60799.999           0.000           0.000
       62399.998           0.000           0.000
       64000.001           0.000           0.000
       65599.999           0.000           0.000
       67199.998           0.000           0.000
       68800.001           0.000           0.000
       70400.000           0.000           0.000
       71999.998           0.000           0.000
       73600.001           0.000           0.000
       75200.000           0.000           0.000
       76799.998           0.000           0.000
       78400.002           0.000           0.000
       80000.000           0.000           0.000
           0.000        1600.000           0.000
        1820.535        1836.129         188.500
        4436.497        1560.645         235.169
        8231.839        1585.959         208.484
       11192.297        1979.624         145.229
       14535.388        1860.001          62.453
       17224.315        1919.917         413.750
       20899.237        1802.853         325.399
       23731.335        1792.943         250.966
       27507.238        1603.221         228.301
       30065.602        1613.570         311.526
       33371.579        1994.991          31.283
       37099.539        1414.823         275.737
       38196.713        1837.356          87.412
       43418.644        1867.336          48.497
       49975.028        1831.460         224.029
       52954.322        1538.422         134.775
       55816.240        1531.934         177.928
       59004.449        1641.677          33.107
       60471.826        1510.939         327.300
       63784.513        1656.536         237.036
       67301.210        1771.228         148.587
       70381.695        1920.216         331.286
       72217.113        1448.806          87.551
       75069.462        1621.662         159.577
       78696.327        1722.356         252.291
       80000.000        1600.000           0.000
           0.000        3200.000           0.000
        3274.399        3217.174         536.412
        5160.666        3300.186         217.391
        6043.012        3262.445         122.317
        9502.865        3552.908         323.681
       11056.006        2840.019         213.063
       14606.628        2840.755          89.496
       17562.634        3511.308         210.981
       18833.142        3539.080          57.336
       22026.411        2868.051         278.694
       25600.029        2863.835         100.416
       27192.156        3106.980         322.071
       30375.600        2888.881         259.695
       33224.678        2857.386          43.076
       36841.038        3085.085         154.518
       40238.304        3524.647          72.373
       43557.179        3128.631          75.678
       46228.872        2830.415         148.411
       48146.017        3166.706         424.726
       51153.215        2952.745          52.576
       53124.514        2981.904         245.460
       56001.007        3429.944         469.934
       59307.581        3225.477          58.424
       62124.444        3154.870         375.095
       64132.610        2904.590          90.869
       67439.924        3451.420         537.462
       68998.763        3472.006         155.937
       72219.436        2879.026         145.074
       75532.535        3132.944         348.300
       78652.387        3551.841         175.265
       80000.000        3200.000           0.000
           0.000        4800.000           0.000
        1400.060        4439.660         183.832
        4786.648        4655.285         396.734
       11454.778        4403.585         377.304
       14098.429        4923.032         156.185
       17912.789        5043.475         112.697
       20446.875        4859.061          99.067
       24108.597        4895.159         400.303
       27234.832        4431.193         260.956
       28696.423        4449.033         616.392
       32196.694        4589.490          71.295
       33867.228        4797.771         464.810
       34933.129        4760.558         538.666
       38067.139        5053.208         484.079
       41605.852        4581.133         313.767
       44854.687        5021.321         538.985
       48175.269        4416.823         406.015
       51163.202        5122.950          93.936
       54186.876        4703.411         515.860
       56317.818        4828.699         363.570
       59169.326        5108.954          89.731
       62536.999        4516.819         156.454
       65848.099        4445.450         375.238
       68694.276        4766.024         221.325
       71946.222        4752.098         244.329
       75433.121        5067.460         613.533
       78033.243        4664.320         189.661
       80000.000        4800.000           0.000
           0.000        6400.000           0.000
        2841.623        6773.290         237.053
        6245.685        6376.243         481.174
        7744.385        6030.238         306.486
       11368.686        6592.994         346.363
       14270.010        6704.916         312.983
       17330.427        6370.488         162.666
       19571.144        6573.041         365.218
       22641.152        6627.002         558.316
       23763.572        6012.529         484.294
       27463.089        6427.221         511.384
       30273.002        6504.167         251.200
       33884.178        6077.220         254.683
       35390.886        6255.305         307.672
       38075.664        6205.118         548.741
       40048.604        6389.405         137.653
       43255.311        6307.072         163.918
       46126.564        6231.346         440.549
       48285.057        6596.744         335.800
       51294.080        6157.575         115.733
       54250.249        6543.358         666.410
       57921.865        6224.397         186.851
       59558.312        6004.572         107.090
       62425.662        6132.109         206.472
       65724.696        6341.122         606.289
       68956.079        6674.843         512.049
       72380.520        6490.972         453.495
       75318.037        6459.550         530.242
       78160.955        6114.578         240.441
       80000.000        6400.000           0.000
           0.000        8000.000           0.000
        3576.129        8217.635         237.176
        5061.593        7652.754         367.037
        8105.944        7856.844         486.845
       11121.498        7830.817         511.839
       14531.786        8256.985         532.094
       16036.950        7761.051         403.463
       19087.239        8020.414         544.411
       22626.171        7850.784         358.859
       25653.785        8135.625         479.435
       28733.316        8014.857         368.088
       30647.917        7622.140         125.236
       31669.813        8123.016         383.454
       35544.551        8083.612         403.827
       38771.621        7743.567         185.723
       41941.639        8315.419         509.771
       44649.095        8053.831         324.702
       48005.993        8300.872         574.371
       51584.272        8303.210         382.792
       52951.115        7723.006         353.088
       55834.828        8389.314         452.289
       58839.904        7674.993         141.052
       60484.772        8202.290         471.974
       63784.723        8145.830         291.659
       67326.420        8175.747         713.726
       68571.734        8073.207         702.939
       72193.925        8373.058         734.424
       73714.578        7878.720         429.049
       77044.523        8185.581         156.908
       78448.742        7636.455          86.291
       80000.000        8000.000           0.000
           0.000        9600.000           0.000
        3060.393        9702.503         101.520
        6737.398        9989.628         226.844
        9830.599        9930.901         454.188
[...]
POINT_DATA       2381
SCALARS height float 1
LOOKUP_TABLE default
     0.0
     0.0
     0.0
     0.0
     0.0
     0.0
     0.0
     0.0
     0.0
     0.0
     0.0
     0.0
     0.0
     0.0
     0.0
     0.0
     0.0
     0.0
     0.0
     0.0
     0.0
     0.0
     0.0
     0.0
     0.0
     0.0
     0.0
     0.0
     0.0
     0.0
     0.0
     0.0
     0.0
     0.0
     0.0
     0.0
     0.0
     0.0
     0.0
     0.0
     0.0
     0.0
     0.0
     0.0
     0.0
     0.0
     0.0
     0.0
     0.0
     0.0
     0.0
     0.0
   188.5
   235.2
   208.5
   145.2
    62.5
   413.8
   325.4
   251.0
   228.3
   311.5
    31.3
   275.7
    87.4
    48.5
   224.0
   134.8
   177.9
    33.1
   327.3
   237.0
   148.6
   331.3
    87.6
   159.6
   252.3
     0.0
     0.0
   536.4
   217.4
   122.3
   323.7
   213.1
    89.5
   211.0
    57.3
   278.7
   100.4
   322.1
   259.7
    43.1
   154.5
    72.4
    75.7
   148.4
   424.7
    52.6
   245.5
   469.9
    58.4
   375.1
    90.9
   537.5
   155.9
   145.1
   348.3
   175.3
     0.0
     0.0
   183.8
   396.7
   377.3
   156.2
   112.7
    99.1
   400.3
   261.0
   616.4
    71.3
   464.8
   538.7
   484.1
   313.8
   539.0
   406.0
    93.9
   515.9
   363.6
    89.7
   156.5
   375.2
   221.3
   244.3
   613.5
   189.7
     0.0
     0.0
   237.1
   481.2
   306.5
   346.4
   313.0
   162.7
   365.2
   558.3
   484.3
   511.4
   251.2
   254.7
   307.7
   548.7
   137.7
   163.9
   440.5
   335.8
   115.7
   666.4
   186.9
   107.1
   206.5
   606.3
   512.0
   453.5
   530.2
   240.4
     0.0
     0.0
   237.2
   367.0
   486.8
   511.8
   532.1
   403.5
   544.4
   358.9
   479.4
   368.1
   125.2
   383.5
   403.8
   185.7
   509.8
   324.7
   574.4
   382.8
   353.1
   452.3
   141.1
   472.0
   291.7
   713.7
   702.9
   734.4
   429.0
   156.9
    86.3
     0.0
     0.0
   101.5
   226.8
   454.2
   373.6
   727.1
   433.4
   290.7
   750.7
   789.6
   415.3
   152.9
   801.2
   582.8
   236.8
   590.7
   620.1
   473.0
   808.5
   208.1
   514.3
   849.5
   303.4
   680.4
   602.7
   644.2
   987.3
   833.8
   410.9
   269.0
     0.0
     0.0
   414.2
   406.7
   400.1
   793.2
   663.7
   689.2
   288.7
   563.9
   609.5
   182.1
   874.8
   669.8
   389.7
   521.2
   540.8
   689.8
   848.6
   358.2
   910.3
   712.8
   511.6
   218.1
   501.7
   585.1
   965.2
   497.2
   588.7
   434.5
   455.3
   219.5
     0.0
     0.0
   594.3
   640.6
   574.7
   686.6
   789.6
   889.2
   680.5
   686.9
   589.3
   919.5
   430.9
   275.5
   247.7
   546.5
   644.7
   452.5
   766.4
   426.0
   632.3
   601.1
   364.2
   909.8
   294.2
   279.2
   506.0
   841.2
  1000.7
   373.4
   304.9
   181.7
   129.3
    81.8
     0.0
     0.0
   145.7
   294.6
   275.4
   377.1
   511.7
   684.1
  1065.2
   651.3
  1159.0
   465.0
   662.9
   336.8
   986.3
   974.8
   660.6
  1006.6
   656.7
  1042.2
   745.2
   837.8
   477.9
   333.9
  1023.2
   936.5
   701.9
   570.2
   428.5
   338.8
     0.0
     0.0
    75.6
   145.9
   228.9
   387.2
  1010.4
  1052.4
  1031.9
  1301.3
   911.9
   906.1
   787.0
   475.5
   788.6
  1220.3
  1054.4
  1282.1
  1364.9
   876.4
  1035.3
   826.0
   489.3
   661.0
  1061.6
   812.6
   866.5
   672.7
   601.5
   228.6
   332.4
     0.0
     0.0
   362.1
   504.1
   602.7
   764.2
   900.4
  1204.4
  1442.1
  1441.9
  1443.8
   961.4
  1169.2
   791.7
   875.8
  1136.0
  1213.9
  1461.9
  1398.1
  1329.2
  1047.6
  1005.4
   903.1
   692.3
  1047.7
   481.5
   295.3
   462.3
   377.9
    54.0
     0.0
     0.0
   416.4
   253.3
   329.9
   564.6
   576.5
   824.5
  1255.4
  1548.9
  1369.9
  1448.7
  1336.9
  1147.9
  1315.7
  1414.8
  1495.4
  1600.2
  1600.3
  1423.3
  1348.3
  1293.2
  1141.5
   996.0
  1090.9
   651.6
   730.7
   211.0
   127.1
   355.5
     0.0
     0.0
    53.1
   104.4
   196.4
   238.4
   265.4
   452.5
  1034.8
  1541.5
  1600.4
  1600.4
  1600.4
  1535.2
  1489.6
  1600.4
  1600.1
  1600.2
  1600.3
  1515.2
  1600.3
  1600.3
  1507.1
  1328.5
  1313.7
   930.0
   339.8
   596.1
   372.1
   455.8
   261.8
     0.0
     0.0
   308.1
   248.6
   376.8
   360.9
   668.2
   640.8
  1441.3
  1547.6
  1600.4
  1600.3
  1600.4
  1538.7
  1600.4
  1600.4
  1600.4
  1600.1
  1600.1
  1600.4
  1600.3
  1600.1
  1600.1
  1418.9
   759.1
   769.5
   752.3
   825.3
   538.5
   366.7
   117.7
     0.0
     0.0
   272.4
   594.9
   688.4
   839.8
   752.8
  1021.6
  1090.4
  1554.1
  1600.4
  1600.3
  1600.3
  1600.3
  1600.4
  1600.4
  1600.4
  1600.2
  1600.3
  1600.3
  1600.4
  1600.4
  1600.4
  1600.1
  1600.1
  1569.8
  1362.9
   870.9
   807.7
   554.5
   339.2
   247.3
     0.0
     0.0
   130.2
   280.9
   458.0
   892.6
   674.7
   892.3
  1239.7
  1536.9
  1600.6
  1600.3
  1600.3
  1600.3
  1600.5
  1600.4
  1600.4
  1600.2
  1600.3
  1600.3
  1600.3
  1600.3
  1600.4
  1600.1
  1510.0
  1214.7
   852.6
   434.5
   252.8
   166.6
   125.7
    70.4
     0.0
     0.0
   197.8
   474.9
   445.4
   376.0
   629.7
   837.3
   974.2
  1125.3
  1518.2
  1600.4
  1600.3
  1600.3
  1600.5
  1600.4
  1600.4
  1600.3
  1600.3
  1600.3
  1600.3
  1600.3
  1600.1
  1448.4
  1162.6
   803.8
   748.3
   493.2
   319.9
   366.8
     0.0
     0.0
   391.0
   377.4
   133.7
   202.3
   299.1
   427.6
   930.2
  1461.4
  1600.4
  1600.3
  1600.3
  1600.5
  1600.4
  1600.4
  1600.3
  1600.2
  1600.3
  1600.3
  1600.1
  1408.6
  1027.2
   764.1
   820.8
   508.6
   319.8
   552.6
   157.3
     0.0
     0.0
   278.9
    70.8
   513.9
   346.9
   611.8
   674.4
   721.8
  1228.9
  1534.9
  1600.4
  1600.3
  1600.5
  1600.3
  1600.3
  1600.3
  1600.3
  1600.4
  1600.3
  1600.1
  1600.3
  1600.3
  1396.3
   579.2
   480.2
   281.2
   195.3
   113.9
   392.8
   353.7
     0.0
     0.0
    44.6
    86.4
   150.5
   200.3
   438.0
   875.6
  1203.9
  1549.9
  1596.5
  1600.3
  1600.3
  1600.3
  1600.5
  1600.5
  1600.3
  1600.3
  1600.3
  1600.4
  1600.3
  1600.3
  1600.3
  1600.3
  1575.4
   956.8
   751.3
   972.6
   533.0
   562.1
    80.5
   278.5
     0.0
     0.0
   239.0
   312.6
   362.4
   348.7
   530.0
   974.0
  1554.8
  1600.3
  1600.3
  1600.3
  1600.3
  1600.5
  1600.3
  1600.3
  1600.4
  1600.4
  1600.4
  1600.4
  1600.3
  1600.3
  1577.8
  1236.9
  1298.8
   872.5
   691.7
   549.1
   102.8
    26.3
     0.0
     0.0
   206.1
   348.2
   471.7
   671.0
   677.2
  1120.4
  1371.5
  1600.3
  1600.2
  1600.2
  1600.5
  1600.5
  1600.3
  1600.4
  1600.4
  1600.4
  1600.4
  1600.3
  1600.3
  1600.3
  1600.3
  1472.8
  1426.1
   816.9
   332.6
   269.8
   141.3
   308.2
   336.7
     0.0
     0.0
   253.0
   270.2
   313.1
   466.3
   346.8
   558.7
  1117.5
  1496.8
  1600.2
  1600.2
  1600.5
  1600.5
  1600.3
  1600.4
  1600.4
  1600.3
  1600.4
  1600.4
  1600.3
  1600.3
  1600.4
  1237.0
   640.1
   614.0
   414.6
   537.1
   642.5
   127.7
     0.0
     0.0
    45.4
    88.5
   132.4
   162.6
   287.7
   535.7
  1067.2
  1467.2
  1600.4
  1600.4
  1600.5
  1600.3
  1600.4
  1600.2
  1600.3
  1600.4
  1600.4
  1600.3
  1600.4
  1347.7
   950.4
   930.2
   628.4
   789.9
   504.6
   293.0
     0.0
     0.0
   202.4
   344.7
   294.6
   519.5
   250.2
   642.2
   780.1
  1335.9
  1600.4
  1600.4
  1600.4
  1600.5
  1600.4
  1600.4
  1600.4
  1600.4
  1600.4
  1600.2
  1600.4
  1600.2
  1600.4
  1600.4
  1481.1
   801.5
   654.2
   466.4
   357.7
   466.0
   369.8
   130.7
     0.0
     0.0
   498.8
   399.0
   349.7
   519.3
   534.4
   360.1
   444.8
   604.3
  1144.7
  1316.3
  1600.4
  1600.5
  1600.4
  1600.4
  1600.4
  1600.4
  1600.2
  1600.2
  1600.2
  1600.2
  1512.6
  1104.5
   766.3
   361.4
   281.2
   206.8
   159.2
   451.8
   202.6
     0.0
     0.0
   240.6
   289.2
   174.9
   486.8
   903.9
   856.3
   613.2
   722.8
   899.8
  1524.8
  1600.5
  1600.4
  1600.4
  1600.4
  1600.4
  1600.3
  1600.3
  1600.3
  1600.2
  1600.3
  1600.3
  1600.3
  1053.4
   609.7
   648.0
   616.5
   468.4
    89.9
   192.8
     0.0
     0.0
    83.9
   384.1
   320.2
   456.1
   986.0
   987.8
  1186.1
  1311.0
  1600.5
  1600.5
  1600.5
  1600.4
  1600.4
  1600.4
  1600.4
  1600.4
  1600.3
  1600.3
  1600.4
  1600.3
  1600.3
  1600.3
  1462.3
  1388.2
   763.1
   513.8
   280.1
   191.4
    97.9
    68.4
    39.9
     0.0
     0.0
    68.7
   226.9
   699.9
   812.9
   864.5
   625.4
   901.4
  1216.8
  1516.1
  1600.5
  1600.5
  1600.4
  1600.4
  1600.4
  1600.4
  1600.4
  1600.3
  1600.3
  1600.3
  1600.3
  1600.3
  1600.3
  1571.7
  1314.3
   845.3
   618.7
   314.6
   253.5
   398.2
   215.4
   212.7
     0.0
     0.0
   206.7
   460.8
   441.6
   524.4
   383.7
   826.9
  1500.9
  1600.5
  1600.4
  1600.4
  1600.4
  1600.4
  1600.3
  1600.3
  1600.3
  1600.4
  1600.4
  1600.4
  1600.2
  1592.3
  1264.1
   823.9
   764.3
   412.8
   506.8
   311.4
     0.0
     0.0
   205.5
   501.6
   220.8
   232.1
   659.3
   951.5
  1354.2
  1591.5
  1600.3
  1600.4
  1600.4
  1600.2
  1600.2
  1600.3
  1600.3
  1600.3
  1600.4
  1600.4
  1600.4
  1600.4
  1600.5
  1572.9
  1210.6
  1046.4
   760.2
   584.1
   377.8
   310.6
     0.0
     0.0
   140.2
   312.3
   274.7
   131.2
   185.2
   579.8
   668.9
  1409.7
  1509.8
  1600.3
  1600.4
  1600.4
  1600.4
  1600.3
  1600.3
  1600.4
  1600.4
  1600.4
  1600.4
  1600.4
  1600.5
  1600.1
  1467.5
   709.8
   385.8
   237.1
   146.1
    68.4
     0.0
     0.0
    26.7
    64.0
    82.7
   416.8
   238.5
   338.4
   563.2
  1149.6
  1559.9
  1600.4
  1600.4
  1600.4
  1600.4
  1600.3
  1600.2
  1600.4
  1600.4
  1600.4
  1600.4
  1600.2
  1556.1
  1467.0
  1235.9
   942.2
   651.6
   531.1
   605.0
   538.1
   433.8
     0.0
     0.0
   364.0
   217.8
   241.9
   757.9
   461.6
   551.3
   477.0
  1182.7
  1503.7
  1600.4
  1600.4
  1600.4
  1600.4
  1600.3
  1600.3
  1600.4
  1600.3
  1600.4
  1600.4
  1600.4
  1600.2
  1564.9
  1251.8
   624.3
   455.0
   257.5
   437.9
   100.9
    52.0
     0.0
     0.0
   374.5
   573.2
   476.7
   792.6
   749.0
   862.6
   826.6
  1417.4
  1318.5
  1517.8
  1600.4
  1600.5
  1600.3
  1600.3
  1600.3
  1600.3
  1600.3
  1600.3
  1600.4
  1600.1
  1600.3
  1600.3
  1600.3
  1155.8
  1007.1
   497.6
   299.9
   152.4
   427.6
     0.0
     0.0
    72.1
   429.4
   515.5
   516.8
   710.4
  1110.0
  1153.9
  1216.7
  1338.2
  1104.2
  1457.2
  1600.2
  1600.5
  1600.3
  1600.3
  1600.3
  1600.3
  1600.1
  1600.1
  1600.3
  1596.9
  1549.0
   907.4
   720.8
   656.6
   249.0
   284.7
     0.0
     0.0
    98.5
   168.7
   259.7
   416.7
   564.3
  1143.1
  1513.6
  1126.2
   713.7
  1389.5
  1600.2
  1571.4
  1600.3
  1600.2
  1600.2
  1595.0
  1562.3
  1455.7
  1600.2
  1600.2
  1600.3
  1600.3
  1283.9
   902.1
   483.1
   632.9
   494.1
   462.7
   240.5
     0.0
     0.0
   186.7
   490.1
   508.7
   398.2
   805.7
   546.8
   986.2
  1310.5
  1320.5
  1074.5
   765.6
  1117.1
  1408.5
  1531.4
  1353.0
  1463.2
  1600.2
  1426.7
  1337.6
  1506.7
  1554.0
  1600.3
  1407.1
   884.0
   779.6
   273.9
   209.8
   130.0
   218.4
   405.0
     0.0
     0.0
   107.4
   617.8
   507.0
   682.1
   993.9
  1271.9
  1177.8
   876.9
   990.5
   391.6
   623.1
  1212.2
  1195.6
  1363.2
  1444.6
  1574.5
  1457.7
  1290.3
  1025.5
  1180.7
  1512.6
  1600.3
  1228.7
   909.8
   645.6
   597.8
   477.2
    64.7
    35.8
     0.0
     0.0
    53.9
   402.6
   192.3
   333.7
   612.0
   895.6
   712.9
   779.9
   524.6
   685.3
   303.6
   667.1
  1030.4
   771.1
  1051.6
  1225.6
  1282.1
  1032.0
   949.8
   844.5
  1420.0
  1562.6
  1341.5
  1036.9
   674.3
   359.2
   219.9
   171.4
   134.2
   298.5
     0.0
     0.0
   195.7
   506.1
   533.1
   567.0
   798.9
   721.7
   537.2
   403.4
   613.4
   368.9
   806.9
   648.4
   470.1
   669.2
  1021.8
   799.7
   405.2
   956.2
   555.6
  1199.5
  1214.5
  1494.1
  1120.2
  1108.4
   655.7
   606.6
   271.8
   396.5
   176.2
     0.0
     0.0
   276.1
   392.0
   313.1
   818.9
   936.0
   827.5
   682.4
   590.5
   290.4
   490.5
   213.3
   714.8
  1026.3
   373.2
   368.1
   633.0
   916.4
   442.3
   691.6
   428.7
   877.7
  1250.3
   890.2
   982.4
  1044.7
   968.5
   957.2
   393.8
   377.9
   160.2
     0.0
     0.0
    95.0
   478.6
   527.7
   657.3
   730.3
   540.9
   617.1
   427.8
   593.2
   182.8
   485.5
   918.5
   428.9
   575.9
   768.2
   787.2
   670.7
   471.4
   601.8
   303.0
   796.8
   627.2
   896.0
   471.5
   712.4
   785.1
   375.0
     0.0
     0.0
   211.8
   170.8
   310.2
   517.1
   729.6
   251.3
   361.9
   535.8
   199.8
   138.7
   308.1
   967.2
   680.0
   190.9
   456.8
   299.7
   636.5
   311.6
   214.3
   498.9
   385.7
   867.5
   627.1
   655.5
   379.1
   605.6
   428.3
   180.0
   234.6
     0.0
     0.0
   465.0
   246.7
   643.3
   325.0
   658.6
   188.8
   442.4
   135.3
   394.2
   620.6
   632.2
   150.5
   180.4
   776.7
   520.3
   129.5
   238.6
   455.8
   306.8
   444.3
   639.8
   561.5
   279.0
   841.0
   789.9
   408.0
    99.1
     0.0
     0.0
   169.9
   450.2
   318.6
   251.3
   340.3
   239.1
   546.2
   423.4
    89.9
   442.2
   606.1
   658.6
   306.3
   111.1
   512.8
   411.7
   295.3
   121.6
   312.9
   210.2
   268.6
   189.0
   274.4
   214.3
   509.2
   383.6
   445.4
   241.8
     0.0
     0.0
   246.3
   436.1
   398.6
   275.4
   128.8
   399.7
   381.3
   144.2
   527.0
    62.3
   187.8
   387.0
   392.2
   355.4
    79.8
   252.6
   532.3
   200.8
    68.1
   398.1
   143.2
   412.5
   135.9
   558.0
   134.7
   761.8
   277.5
   355.4
   272.6
     0.0
     0.0
   344.8
   173.8
   524.7
    75.4
   409.4
   329.9
   389.8
    57.0
   269.2
   242.3
    42.4
   135.1
   219.5
   298.4
   388.9
   271.3
    55.2
   483.0
   114.6
   313.4
    38.4
   469.1
   377.0
    83.3
   144.9
   350.5
    76.7
   412.8
   286.5
   122.0
   233.7
   328.8
     0.0
     0.0
   377.5
   254.1
   190.2
   285.9
   175.7
   305.7
   153.8
   274.1
    30.2
   298.2
   157.2
   137.7
    34.6
   284.6
    74.4
   298.4
   226.7
   113.0
    51.7
    81.8
    62.3
   220.1
   151.6
   125.6
   321.9
   402.6
   176.9
     0.0
     0.0
     0.0
     0.0
     0.0
     0.0
     0.0
     0.0
     0.0
     0.0
     0.0
     0.0
     0.0
     0.0
     0.0
     0.0
     0.0
     0.0
     0.0
     0.0
     0.0
     0.0
     0.0
     0.0
     0.0
     0.0
     0.0
     0.0
     0.0
     0.0
     0.0
     0.0
     0.0
     0.0
     0.0
     0.0
     0.0
     0.0
     0.0
     0.0
     0.0
     0.0
     0.0
     0.0
     0.0
     0.0
     0.0
     0.0
     0.0
     0.0
     0.0
     0.0
   105.4
   506.7
   209.8
   663.3
   250.6
   475.8
   280.5
   556.3
  1032.4
  1600.4
   667.6
  1600.3
  1600.3
  1270.3
    91.8
   498.7
   750.3
  1457.1
  1600.4
  1451.3
  1600.2
   575.6
  1600.4
  1114.7
  1600.2
  1600.3
  1600.3
  1188.3
  1240.9
   341.6
   870.3
   941.8
   409.1
   596.7
   448.1
   321.0
    60.6
   275.7
    14.1
    41.3
    35.3
    75.1
    42.9
    59.6
    28.2
   123.5
    50.3
    32.8
    73.3
   154.5
    25.3
   164.5
    86.7
    95.5
   114.0
    49.8
   170.4
   104.5
   178.9
    38.7
   147.9
    37.1
   138.8
    24.6
   171.9
   171.0
    24.2
   111.9
    67.3
    32.3
    87.6
   149.3
   284.9
   150.2
    23.4
    98.9
   300.4
    23.2
    91.5
   181.9
   107.1
    94.7
    41.7
    19.6
    93.3
   135.6
   157.1
    32.4
   171.9
   128.8
   168.4
   157.6
    34.2
   134.5
   113.0
    88.6
    86.4
   124.1
    43.8
   112.4
   173.4
    45.6
    77.1
   130.0
   113.2
   146.2
    86.4
    37.9
    27.5
    62.5
   146.6
    19.9
    39.3
    58.0
   144.3
   148.5
    98.9
    80.9
    67.2
    15.2
   129.1
    75.3
    68.3
    17.3
   153.8
    33.7
   154.0
   318.8
   150.3
   151.6
   140.5
   129.8
    26.0
   180.0
    26.8
   582.8
   421.8
   657.3
   156.9
   509.0
   218.4
   809.1
   589.6
   404.8
   513.1
   833.1
  1455.0
  1077.9
   903.5
  1172.2
  1416.2
  1458.0
   480.5
   665.7
   709.3
   511.2
  1431.5
   463.6
  1600.4
  1600.3
   785.2
  1600.2
  1600.4
  1600.4
  1600.4
  1015.5
  1338.7
  1600.4
  1600.3
  1071.5
  1600.4
  1600.4
   853.2
   328.0
   191.6
  1600.1
  1195.5
  1257.7
  1096.0
  1282.2
  1509.2
  1204.8
  1530.0
   490.7
   941.2
   358.2
   873.2
  1047.9
   552.7
   907.5
   333.0
   387.7
   424.6
   500.1
   387.4
   381.8
   582.4
   453.6
   641.8
   196.8
  1503.1
   872.0
  1182.3
  1296.3
  1394.3
   810.8
   303.9
   498.7
   215.8
   860.7
  1360.2
  1163.3
   524.9
   667.0
   355.3
  1600.3
  1600.3
   757.8
  1600.2
  1600.4
  1600.4
   476.7
   721.3
  1514.2
  1551.1
  1520.1
   537.1
  1467.5
   790.2
  1202.3
   695.7
   365.1
   419.5
   863.6
   496.0
   359.9
    77.9
  1600.4
   184.9
   162.9
   209.6
   140.2
    76.1
   159.5
   365.2
   948.5
  1600.3
   135.9
   183.2
   186.8
    97.8
   143.4
    43.9
   200.5
   155.2
    96.2
   286.9
   186.2
   480.0
   112.6
   444.7
    54.4
    65.0
   289.3
   154.9
    81.3
   230.5
   474.0
   132.6
   140.1
   295.2
   254.1
   192.4
   164.0
   335.5
   276.3
   472.7
    77.7
   229.0
   320.9
   240.2
   402.9
   204.4
   217.3
   263.5
   407.7
   111.1
   192.5
    66.1
   127.6
   334.9
   315.9
   179.1
   214.2
   197.9
   132.1
   235.1
    97.3
   101.6
   118.7
   454.2
   139.2
   104.8
   466.7
    94.8
   187.8
   190.4
   323.2
   134.6
   419.2
   135.3
   281.5
   148.9
   417.1
   187.4
   188.1
   100.7
   406.4
   271.4
   121.0
   497.1
   345.3
   177.4
   514.4
   561.5
   465.2
   195.6
   111.6
   277.3
   260.1
   302.2
   542.0
   112.7
   360.6
    95.8
   295.9
   186.2
    94.5
   129.9
   183.1
   323.8
   121.3
   213.1
   511.5
    93.4
   316.4
   185.9
   105.6
   297.1
   156.6
   151.4
   204.3
   358.6
    94.1
   175.1
   108.9
   242.9
   581.7
   264.4
   119.1
    88.4
   202.2
   379.4
   130.1
   229.6
   433.9
   538.7
   393.2
   482.6
   248.0
   222.7
   537.3
   294.1
   505.9
   465.4
   383.2
   157.3
   247.8
   182.9
   159.1
   306.3
   289.2
   184.6
   167.1
   224.1
   128.7
   109.2
   253.3
   165.3
   291.5
   230.9
   492.7
   196.8
   180.8
   284.8
   571.3
   306.2
   164.4
   302.8
   163.4
   136.5
   184.4
   293.5
   324.7
   164.4
   308.0
   209.3
   432.4
   365.7
   407.5
   250.0
   411.5
   166.6
   479.6
   298.8
   397.8
   583.7
   522.6
   155.4
   187.7
   255.0
   344.4
   240.0
   330.5
   206.2
   441.5
   397.1
   307.8
   319.0
   218.1
   157.6
   239.6
   300.2
   708.7
   293.8
   282.7
   502.5
   482.6
   164.6
   409.5
   181.6
   269.1
   227.6
   577.3
   278.0
   374.2
   188.8
   366.9
   502.5
   364.3
   356.7
   509.7
   589.4
   193.5
   347.9
   421.7
   269.4
   604.1
   336.7
   337.4
   255.8
   303.0
   268.6
   192.2
   379.8
   232.1
   385.0
   239.9
   383.1
   576.8
   565.6
   428.7
   245.3
   199.8
   376.6
   549.8
   688.1
   618.1
   595.8
   263.8
   244.0
   681.7
   636.2
   211.2
   507.8
   316.9
   489.4
   276.2
   286.1
   440.2
   320.2
   477.3
   438.7
   205.4
   385.4
   474.6
   225.1
   221.0
   164.8
   404.9
   379.4
   320.3
   463.5
   719.1
   245.6
   495.0
   529.2
   586.2
   641.1
   538.6
   655.3
   526.2
   246.4
   548.1
   620.6
   304.4
   753.6
   434.0
   424.9
   287.8
   773.6
   318.8
   324.7
   476.9
   689.1
   564.7
   688.6
   287.2
   581.9
   471.3
   463.9
   489.3
   795.7
   692.3
   244.1
   557.1
   349.1
   414.5
   602.1
   266.8
   415.0
   673.3
   262.0
   486.7
   235.1
   226.1
   232.5
   645.3
   342.1
   564.0
   568.9
   718.6
   732.6
   410.8
   646.9
   388.6
   420.7
   351.9
   291.3
   369.1
   411.1
   504.7
   606.3
   383.9
   363.7
   742.1
   423.2
   653.2
   309.0
   454.2
   661.9
   391.1
   265.4
   413.8
   279.7
   630.9
   428.7
   361.6
   441.3
   281.6
   411.1
   502.5
   621.4
   532.5
   649.4
   584.0
   583.8
   320.3
   678.9
   287.9
   748.5
   486.7
   594.9
   575.8
   297.5
   519.0
   876.4
   350.0
   442.6
   544.1
   932.2
   666.9
   526.0
   601.1
   620.4
   706.2
  1051.0
   827.8