# vtk DataFile Version 3.0
Landscape
ASCII
DATASET UNSTRUCTURED_GRID
POINTS       1949 float
           0.000           0.000           0.000
        1600.000           0.000           0.000
        3200.000           0.000           0.000
        4800.000           0.000           0.000
        6400.000           0.000           0.000
        8000.000           0.000           0.000
        9600.000           0.000           0.000
       11200.000           0.000           0.000
       12800.000           0.000           0.000
       14400.001           0.000           0.000
       16000.000           0.000           0.000
       17600.000           0.000           0.000
       19200.000           0.000           0.000
       20799.999           0.000           0.000
       22400.000           0.000           0.000
       24000.001           0.000           0.000
       25599.999           0.000           0.000
       27200.000           0.000           0.000
       28800.001           0.000           0.000
       30400.000           0.000           0.000
       32000.000           0.000           0.000
       33599.999           0.000           0.000
       35200.000           0.000           0.000
       36800.001           0.000           0.000
       38399.999           0.000           0.000
       40000.000           0.000           0.000
       41599.998           0.000           0.000
       43200.002           0.000           0.000
       44800.000           0.000           0.000
       46399.999           0.000           0.000
       48000.002           0.000           0.000
       49600.000           0.000           0.000
       51199.999           0.000           0.000
       52800.002           0.000           0.000
       54400.001           0.000           0.000
       55999.999           0.000           0.000
       57600.002           0.000           0.000
       59200.001           0.000           0.000
       60799.999           0.000           0.000
       62399.998           0.000           0.000
       64000.001           0.000           0.000
       65599.999           0.000           0.000
       67199.998           0.000           0.000
       68800.001           0.000           0.000
       70400.000           0.000           0.000
       71999.998           0.000           0.000
       73600.001           0.000           0.000
       75200.000           0.000           0.000
       76799.998           0.000           0.000
       78400.002           0.000           0.000
       80000.000           0.000           0.000
           0.000        1600.000           0.000
        1820.535        1836.129         166.774
        4436.497        1560.645         217.133
        8231.839        1585.959         186.204
       11192.297        1979.624         187.222
       14535.388        1860.001         102.096
       17224.315        1919.917         272.058
       20899.237        1802.853         246.820
       23731.335        1792.943         192.754
       27507.238        1603.221         195.705
       30065.602        1613.570         337.165
       33371.579        1994.991         113.898
       37099.539        1414.823         282.159
       38196.713        1837.356         123.941
       41840.942        1855.796         244.889
       43418.644        1867.336         118.836
       46734.950        1319.882         336.775
       49975.028        1831.460         393.085
       52954.322        1538.422         201.380
       55816.240        1531.934         182.020
       59004.449        1641.677          94.743
       60471.826        1510.939         241.787
       63784.513        1656.536         326.351
       67301.210        1771.228         167.719
       70381.695        1920.216         296.460
       72217.113        1448.806         116.231
       75069.462        1621.662         179.402
       78696.327        1722.356         226.229
       80000.000        1600.000           0.000
           0.000        3200.000           0.000
        3274.399        3217.174         384.868
        5160.666        3300.186         371.785
        6043.012        3262.445         190.517
        9502.865        3552.908         456.168
       11056.006        2840.019         322.470
       14606.628        2840.755         152.074
       17562.634        3511.308         274.344
       18833.142        3539.080         135.054
       22026.411        2868.051         254.764
       25600.029        2863.835         195.379
       27192.156        3106.980         442.288
       30375.600        2888.881         427.442
       33224.678        2857.386         181.207
       36841.038        3085.085         238.654
       40238.304        3524.647         240.768
       43557.179        3128.631         192.373
       46228.872        2830.415         225.241
       48146.017        3166.706         321.908
       51153.215        2952.745         193.686
       53124.514        2981.904         461.908
       56001.007        3429.944         527.651
       59307.581        3225.477         215.585
       62124.444        3154.870         247.572
       64132.610        2904.590         225.594
       67439.924        3451.420         548.559
       68998.763        3472.006         369.793
       72219.436        2879.026         204.287
       75532.535        3132.944         466.712
       78652.387        3551.841         176.019
       80000.000        3200.000           0.000
           0.000        4800.000           0.000
        1400.060        4439.660         185.172
        4786.648        4655.285         576.635
        8308.484        5116.135         644.269
       11454.778        4403.585         581.050
       14098.429        4923.032         419.033
       17912.789        5043.475         280.678
       20446.875        4859.061         270.134
       24108.597        4895.159         625.356
       27234.832        4431.193         581.205
       28696.423        4449.033         700.239
       32196.694        4589.490         477.147
       33867.228        4797.771         590.185
       34933.129        4760.558         642.782
       38067.139        5053.208         433.475
       41605.852        4581.133         433.823
       44854.687        5021.321         551.974
       48175.269        4416.823         622.210
       51163.202        5122.950         538.993
       54186.876        4703.411         700.276
       56317.818        4828.699         658.137
       59169.326        5108.954         410.399
       62536.999        4516.819         447.804
       65848.099        4445.450         557.464
       68694.276        4766.024         551.017
       71946.222        4752.098         472.520
       75433.121        5067.460         603.408
       78033.243        4664.320         194.022
       80000.000        4800.000           0.000
           0.000        6400.000           0.000
        2841.623        6773.290         228.792
        6245.685        6376.243         610.865
        7744.385        6030.238         700.431
       11368.686        6592.994         700.355
       14270.010        6704.916         612.815
       17330.427        6370.488         575.715
       19571.144        6573.041         584.996
       22641.152        6627.002         700.722
       23763.572        6012.529         700.721
       27463.089        6427.221         700.238
       30273.002        6504.167         700.238
       33884.178        6077.220         700.521
       35390.886        6255.305         700.521
       38075.664        6205.118         691.998
       40048.604        6389.405         615.164
       43255.311        6307.072         669.922
       46126.564        6231.346         700.147
       48285.057        6596.744         700.146
       51294.080        6157.575         700.163
       54250.249        6543.358         700.279
       57921.865        6224.397         613.880
       59558.312        6004.572         520.456
       62425.662        6132.109         580.031
       65724.696        6341.122         671.719
       68956.079        6674.843         700.458
       72380.520        6490.972         654.984
       75318.037        6459.550         620.493
       78160.955        6114.578         197.105
       80000.000        6400.000           0.000
           0.000        8000.000           0.000
        3576.129        8217.635         207.035
        5061.593        7652.754         319.947
        8105.944        7856.844         700.431
       11121.498        7830.817         700.355
       14531.786        8256.985         700.200
       16036.950        7761.051         700.310
       19087.239        8020.414         700.474
       22626.171        7850.784         700.572
       25653.785        8135.625         700.428
       28733.316        8014.857         700.238
       30647.917        7622.140         700.238
       31669.813        8123.016         700.238
       35544.551        8083.612         700.526
       38771.621        7743.567         700.327
       41941.639        8315.419         700.301
       44649.095        8053.831         700.172
       48005.993        8300.872         700.147
       51584.272        8303.210         700.318
       52951.115        7723.006         700.318
       55834.828        8389.314         700.318
       58839.904        7674.993         640.121
       60484.772        8202.290         687.436
       63784.723        8145.830         682.782
       67326.420        8175.747         700.458
       68571.734        8073.207         700.458
       72193.925        8373.058         700.533
       73714.578        7878.720         700.514
       77044.523        8185.581         241.692
       78448.742        7636.455         126.981
       80000.000        8000.000           0.000
           0.000        9600.000           0.000
[...]
POINT_DATA       1949
SCALARS height float 1
LOOKUP_TABLE default
     0.0
     0.0
     0.0
     0.0
     0.0
     0.0
     0.0
     0.0
     0.0
     0.0
     0.0
     0.0
     0.0
     0.0
     0.0
     0.0
     0.0
     0.0
     0.0
     0.0
     0.0
     0.0
     0.0
     0.0
     0.0
     0.0
     0.0
     0.0
     0.0
     0.0
     0.0
     0.0
     0.0
     0.0
     0.0
     0.0
     0.0
     0.0
     0.0
     0.0
     0.0
     0.0
     0.0
     0.0
     0.0
     0.0
     0.0
     0.0
     0.0
     0.0
     0.0
     0.0
   166.8
   217.1
   186.2
   187.2
   102.1
   272.1
   246.8
   192.8
   195.7
   337.2
   113.9
   282.2
   123.9
   244.9
   118.8
   336.8
   393.1
   201.4
   182.0
    94.7
   241.8
   326.4
   167.7
   296.5
   116.2
   179.4
   226.2
     0.0
     0.0
   384.9
   371.8
   190.5
   456.2
   322.5
   152.1
   274.3
   135.1
   254.8
   195.4
   442.3
   427.4
   181.2
   238.7
   240.8
   192.4
   225.2
   321.9
   193.7
   461.9
   527.7
   215.6
   247.6
   225.6
   548.6
   369.8
   204.3
   466.7
   176.0
     0.0
     0.0
   185.2
   576.6
   644.3
   581.0
   419.0
   280.7
   270.1
   625.4
   581.2
   700.2
   477.1
   590.2
   642.8
   433.5
   433.8
   552.0
   622.2
   539.0
   700.3
   658.1
   410.4
   447.8
   557.5
   551.0
   472.5
   603.4
   194.0
     0.0
     0.0
   228.8
   610.9
   700.4
   700.4
   612.8
   575.7
   585.0
   700.7
   700.7
   700.2
   700.2
   700.5
   700.5
   692.0
   615.2
   669.9
   700.1
   700.1
   700.2
   700.3
   613.9
   520.5
   580.0
   671.7
   700.5
   655.0
   620.5
   197.1
     0.0
     0.0
   207.0
   319.9
   700.4
   700.4
   700.2
   700.3
   700.5
   700.6
   700.4
   700.2
   700.2
   700.2
   700.5
   700.3
   700.3
   700.2
   700.1
   700.3
   700.3
   700.3
   640.1
   687.4
   682.8
   700.5
   700.5
   700.5
   700.5
   241.7
   127.0
     0.0
     0.0
   223.0
   700.4
   700.2
   700.2
   700.3
   700.4
   700.4
   700.4
   700.4
   700.2
   700.2
   700.2
   700.3
   700.3
   700.3
   700.3
   700.2
   700.3
   700.3
   700.3
   700.3
   700.3
   700.3
   700.4
   700.5
   700.5
   700.4
   640.5
   268.8
     0.0
     0.0
   370.0
   700.2
   700.2
   700.3
   700.3
   700.4
   700.4
   700.4
   700.3
   700.2
   700.3
   700.3
   700.3
   700.3
   700.3
   700.3
   700.3
   700.3
   700.4
   700.3
   700.3
   700.3
   700.3
   700.4
   700.5
   700.4
   700.4
   700.4
   602.6
   183.0
     0.0
     0.0
   422.9
   668.5
   700.2
   700.2
   700.3
   700.3
   700.3
   700.2
   700.4
   700.4
   700.3
   700.3
   700.3
   700.3
   700.3
   700.5
   700.3
   700.3
   700.3
   700.2
   700.2
   700.2
   700.3
   700.3
   700.3
   700.4
   700.4
   700.4
   700.4
   682.5
   586.8
   282.0
     0.0
     0.0
   142.4
   291.6
   700.2
   700.2
   700.3
   700.3
   700.2
   700.2
   700.4
   700.4
   700.0
   700.3
   700.5
   700.5
   700.5
   700.3
   700.3
   700.2
   700.2
   700.2
   700.3
   700.3
   700.3
   700.3
   700.3
   700.4
   698.2
   320.1
     0.0
     0.0
   208.6
   589.7
   700.2
   700.3
   700.3
   700.2
   700.4
   700.4
   700.4
   700.4
   700.3
   700.3
   700.3
   700.3
   700.5
   700.3
   700.3
   700.2
   700.2
   700.3
   700.3
   700.3
   700.3
   700.3
   700.3
   700.2
   700.2
   537.2
   248.3
     0.0
     0.0
   314.6
   639.8
   700.4
   700.3
   700.3
   700.3
   700.4
   700.4
   700.4
   700.4
   700.3
   700.3
   700.3
   700.3
   700.2
   700.2
   700.3
   700.3
   700.2
   700.2
   700.3
   700.3
   700.3
   700.3
   700.3
   700.2
   682.6
   167.2
     0.0
     0.0
   355.4
   467.7
   700.4
   700.4
   700.5
   700.3
   700.3
   700.4
   700.4
   700.4
   700.3
   700.3
   700.3
   700.3
   700.2
   700.2
   700.3
   700.3
   700.3
   700.2
   700.3
   700.3
   700.3
   700.3
   700.3
   700.2
   675.0
   334.4
     0.0
     0.0
   158.7
   551.1
   700.5
   700.5
   700.5
   700.3
   700.3
   700.4
   700.4
   700.4
   700.4
   700.3
   700.3
   700.4
   700.2
   700.3
   700.3
   700.3
   700.3
   700.3
   700.2
   700.3
   700.3
   700.3
   700.3
   700.2
   699.5
   683.9
   214.5
     0.0
     0.0
   265.5
   529.9
   700.4
   700.5
   700.3
   700.3
   700.4
   700.4
   700.4
   700.3
   700.4
   700.3
   700.3
   700.4
   700.4
   700.1
   700.1
   700.4
   700.3
   700.1
   700.1
   700.4
   700.3
   700.3
   700.3
   700.3
   671.1
   570.7
   149.5
     0.0
     0.0
   228.9
   520.4
   700.4
   700.4
   700.5
   700.3
   700.3
   700.4
   700.4
   700.3
   700.3
   700.3
   700.3
   700.3
   700.4
   700.2
   700.3
   700.3
   700.4
   700.4
   700.4
   700.1
   700.1
   700.2
   700.4
   700.3
   700.3
   700.3
   642.2
   195.4
     0.0
     0.0
   216.3
   615.6
   700.4
   700.4
   700.5
   700.5
   700.3
   700.6
   700.6
   700.3
   700.3
   700.3
   700.5
   700.3
   700.3
   700.2
   700.3
   700.3
   700.3
   700.3
   700.4
   700.1
   700.1
   700.4
   700.4
   700.3
   700.3
   700.3
   494.5
   167.2
     0.0
     0.0
   183.6
   681.8
   700.5
   700.3
   700.5
   700.3
   700.3
   700.2
   700.6
   700.4
   700.3
   700.3
   700.5
   700.3
   700.4
   700.3
   700.3
   700.3
   700.3
   700.3
   700.1
   700.1
   700.5
   700.3
   700.3
   700.3
   700.3
   357.4
     0.0
     0.0
   331.7
   345.2
   700.3
   700.3
   700.3
   700.3
   700.2
   700.4
   700.4
   700.3
   700.3
   700.5
   700.4
   700.4
   700.3
   700.2
   700.3
   700.4
   700.1
   700.1
   700.1
   700.3
   700.2
   700.2
   700.2
   595.6
   163.5
     0.0
     0.0
   380.9
   267.6
   700.3
   700.3
   700.3
   700.3
   700.3
   700.2
   700.4
   700.4
   700.3
   700.5
   700.3
   700.3
   700.3
   700.3
   700.4
   700.3
   700.1
   700.3
   700.3
   700.1
   700.3
   700.3
   700.2
   700.3
   640.5
   615.1
   268.2
     0.0
     0.0
   139.3
   259.8
   635.7
   700.3
   700.3
   700.2
   700.2
   700.3
   700.3
   700.3
   700.3
   700.3
   700.5
   700.5
   700.3
   700.3
   700.3
   700.4
   700.3
   700.3
   700.3
   700.3
   700.3
   700.3
   700.3
   700.3
   700.3
   700.2
   470.7
   226.7
     0.0
     0.0
   190.1
   603.5
   591.0
   700.3
   700.3
   700.3
   700.4
   700.3
   700.3
   700.3
   700.3
   700.3
   700.5
   700.3
   700.3
   700.4
   700.4
   700.4
   700.4
   700.3
   700.3
   700.3
   700.3
   700.3
   700.3
   700.3
   700.2
   501.5
    95.9
     0.0
     0.0
   225.9
   476.3
   686.6
   700.3
   700.3
   700.4
   700.4
   700.3
   700.2
   700.2
   700.5
   700.5
   700.3
   700.4
   700.4
   700.4
   700.4
   700.3
   700.3
   700.3
   700.3
   700.3
   700.4
   700.3
   700.4
   700.4
   640.2
   516.4
   248.6
     0.0
     0.0
   330.4
   526.2
   669.8
   700.3
   700.4
   700.3
   700.4
   700.3
   700.2
   700.2
   700.5
   700.5
   700.3
   700.4
   700.4
   700.3
   700.4
   700.4
   700.3
   700.3
   700.4
   700.3
   700.1
   700.4
   700.4
   700.3
   700.3
   144.6
     0.0
     0.0
   177.4
   537.2
   700.3
   700.3
   700.4
   700.3
   700.2
   700.3
   700.4
   700.4
   700.5
   700.3
   700.5
   700.2
   700.3
   700.4
   700.4
   700.3
   700.4
   700.4
   700.4
   700.1
   700.4
   700.4
   700.3
   616.9
   418.9
     0.0
     0.0
   219.6
   624.3
   700.3
   700.4
   700.4
   700.4
   700.3
   700.3
   700.4
   700.4
   700.4
   700.5
   700.4
   700.4
   700.4
   700.4
   700.4
   700.2
   700.4
   700.2
   700.4
   700.4
   700.4
   700.4
   700.3
   700.3
   700.4
   700.3
   591.6
   175.7
     0.0
     0.0
   362.3
   558.4
   678.7
   700.3
   700.4
   700.3
   700.3
   700.3
   700.3
   700.3
   700.4
   700.5
   700.4
   700.4
   700.4
   700.4
   700.2
   700.2
   700.2
   700.2
   700.4
   700.4
   700.4
   700.3
   700.3
   700.5
   700.5
   619.7
   172.2
     0.0
     0.0
   169.5
   316.8
   571.1
   700.3
   700.5
   700.4
   700.3
   700.3
   700.3
   700.4
   700.5
   700.4
   700.4
   700.4
   700.5
   700.3
   700.3
   700.3
   700.2
   700.3
   700.3
   700.3
   700.4
   700.4
   700.4
   700.4
   700.5
   364.8
   308.3
     0.0
     0.0
   192.4
   700.2
   700.2
   700.5
   700.4
   700.3
   700.3
   700.3
   700.5
   700.5
   700.5
   700.4
   700.4
   700.4
   700.4
   700.4
   700.3
   700.3
   700.4
   700.3
   700.3
   700.3
   700.3
   700.3
   700.3
   700.3
   700.4
   700.3
   371.8
   246.5
   132.4
     0.0
     0.0
    87.3
   463.6
   700.2
   700.5
   700.5
   700.3
   700.3
   700.3
   700.3
   700.5
   700.5
   700.4
   700.4
   700.4
   700.4
   700.4
   700.3
   700.3
   700.3
   700.3
   700.3
   700.3
   700.4
   700.3
   700.3
   700.3
   700.3
   700.3
   685.7
   599.7
   224.2
     0.0
     0.0
   239.2
   700.0
   700.3
   700.5
   700.3
   700.4
   700.4
   700.5
   700.4
   700.4
   700.4
   700.5
   700.3
   700.3
   700.3
   700.4
   700.4
   700.4
   700.2
   700.2
   700.4
   700.3
   700.2
   691.4
   614.3
   246.4
     0.0
     0.0
   187.3
   605.5
   700.3
   700.3
   700.2
   700.3
   700.4
   700.4
   700.4
   700.3
   700.4
   700.4
   700.2
   700.2
   700.3
   700.3
   700.3
   700.4
   700.4
   700.4
   700.4
   700.5
   700.2
   700.4
   700.4
   700.2
   700.4
   700.3
   315.7
     0.0
     0.0
   231.3
   530.5
   700.3
   700.3
   700.2
   700.3
   700.4
   700.4
   700.4
   700.3
   700.4
   700.4
   700.4
   700.3
   700.3
   700.4
   700.4
   700.4
   700.4
   700.4
   700.5
   700.1
   700.2
   700.4
   700.2
   700.3
   655.5
   236.9
     0.0
     0.0
    84.6
   339.5
   493.0
   700.3
   700.3
   700.3
   700.1
   700.1
   700.3
   700.4
   700.4
   700.4
   700.4
   700.4
   700.3
   700.2
   700.4
   700.4
   700.4
   700.4
   700.2
   700.3
   700.3
   700.3
   700.4
   700.3
   700.3
   700.3
   700.2
   309.2
     0.0
     0.0
   255.2
   630.5
   700.4
   700.3
   700.3
   700.1
   700.1
   700.2
   700.3
   700.4
   700.4
   700.4
   700.4
   700.3
   700.3
   700.4
   700.3
   700.4
   700.4
   700.5
   700.2
   700.3
   700.2
   700.3
   700.3
   700.3
   396.1
   199.2
    96.7
     0.0
     0.0
   274.0
   700.4
   700.4
   700.3
   700.3
   700.1
   700.2
   700.2
   700.3
   700.4
   700.4
   700.5
   700.3
   700.3
   700.3
   700.3
   700.3
   700.3
   700.4
   700.1
   700.3
   700.3
   700.3
   700.2
   700.3
   700.3
   700.4
   325.0
   294.6
     0.0
     0.0
   176.8
   700.4
   700.4
   700.4
   700.3
   700.1
   700.1
   700.2
   700.2
   700.3
   700.4
   700.2
   700.5
   700.3
   700.3
   700.3
   700.3
   700.1
   700.1
   700.3
   700.3
   700.3
   700.4
   700.3
   700.3
   700.3
   443.9
   248.0
     0.0
     0.0
   285.6
   673.9
   700.4
   700.3
   700.3
   700.1
   700.2
   700.3
   700.3
   700.4
   700.2
   700.3
   700.3
   700.2
   700.2
   700.2
   700.2
   700.2
   700.2
   700.2
   700.3
   700.3
   700.4
   700.4
   700.6
   700.3
   700.3
   653.9
   225.9
     0.0
     0.0
   137.9
   565.7
   700.4
   700.4
   700.4
   700.3
   700.3
   700.2
   700.2
   700.1
   700.2
   700.2
   700.2
   700.2
   700.3
   700.2
   700.2
   700.2
   700.3
   700.2
   700.1
   700.3
   700.4
   700.4
   700.6
   700.3
   700.3
   645.6
   344.7
   315.2
     0.0
     0.0
   271.5
   676.3
   700.4
   700.4
   700.3
   700.3
   700.2
   700.2
   700.1
   700.2
   700.2
   700.2
   700.2
   700.2
   700.4
   700.4
   700.4
   700.4
   700.3
   700.3
   700.1
   700.3
   700.3
   700.3
   700.3
   700.3
   694.7
   213.4
    99.3
     0.0
     0.0
   120.1
   333.4
   667.1
   700.4
   700.3
   700.3
   700.4
   700.2
   700.2
   700.2
   700.2
   700.5
   700.2
   700.2
   700.2
   700.4
   700.4
   700.4
   700.3
   700.3
   700.1
   700.3
   700.3
   700.3
   700.3
   700.5
   691.9
   641.4
   537.4
   253.0
     0.0
     0.0
   185.3
   700.4
   700.4
   700.4
   700.3
   700.4
   700.2
   700.2
   700.2
   700.5
   700.5
   700.2
   700.2
   700.4
   700.4
   700.4
   700.3
   700.3
   700.3
   700.2
   700.3
   700.3
   700.3
   700.3
   700.4
   699.8
   689.1
   566.7
   235.7
     0.0
     0.0
   214.1
   430.3
   700.4
   700.4
   700.3
   700.3
   700.3
   700.2
   700.2
   700.2
   700.4
   700.5
   700.5
   700.3
   700.3
   700.4
   700.4
   700.5
   700.3
   700.3
   700.3
   700.3
   700.4
   700.4
   700.4
   700.4
   700.4
   699.2
   593.1
   149.5
     0.0
     0.0
   161.8
   616.3
   697.4
   700.3
   700.3
   700.3
   700.3
   700.3
   700.2
   700.4
   700.4
   700.5
   700.3
   700.3
   700.3
   700.3
   700.5
   700.3
   700.3
   700.3
   700.3
   700.3
   700.2
   700.4
   700.4
   700.4
   700.4
   700.4
   535.2
     0.0
     0.0
   428.4
   393.9
   653.2
   700.3
   700.3
   700.3
   700.3
   700.3
   700.1
   700.1
   700.4
   700.6
   700.6
   700.3
   700.3
   700.3
   700.3
   700.3
   700.3
   700.4
   700.3
   700.2
   700.4
   700.3
   700.5
   700.5
   700.4
   489.4
   186.7
     0.0
     0.0
   330.7
   574.6
   700.3
   700.3
   700.3
   700.3
   700.3
   696.6
   673.6
   700.1
   700.4
   700.4
   700.6
   700.3
   700.3
   700.3
   700.3
   700.3
   700.4
   700.4
   700.3
   700.2
   700.4
   700.3
   697.9
   700.4
   700.4
   679.6
   186.5
     0.0
     0.0
   170.4
   537.2
   700.3
   700.6
   681.3
   631.6
   662.0
   650.6
   342.1
   700.4
   700.5
   700.5
   700.3
   700.3
   700.4
   700.4
   639.7
   700.4
   700.4
   700.4
   700.2
   700.4
   700.4
   700.3
   679.5
   700.4
   681.0
   416.0
   249.4
     0.0
     0.0
   245.1
   390.3
   301.4
   536.9
   417.9
   700.6
   550.6
   460.0
   530.4
   188.6
   360.0
   489.4
   586.6
   700.3
   700.3
   466.2
   618.4
   502.3
   370.7
   700.4
   700.3
   555.5
   700.3
   507.6
   700.3
   567.3
   699.0
   514.3
   336.3
   251.8
     0.0
     0.0
   320.2
   148.3
   496.2
   155.8
   531.2
   417.4
   345.6
   152.0
   282.9
   480.1
   119.8
   163.8
   273.9
   378.4
   296.9
   406.1
   398.5
   520.0
   180.5
   357.5
   125.5
   481.9
   521.3
   283.4
   466.0
   366.4
   239.7
   474.8
   479.0
   142.2
   245.0
   314.9
     0.0
     0.0
   342.8
   268.1
   182.2
   261.3
   141.6
   234.0
   151.1
   226.3
    82.7
   268.2
   197.9
   150.0
   158.1
   201.1
   104.6
   261.8
   236.6
   119.4
   124.8
   178.4
   139.0
   158.3
   148.6
   166.3
   266.8
   363.8
   174.4
     0.0
     0.0
     0.0
     0.0
     0.0
     0.0
     0.0
     0.0
     0.0
     0.0
     0.0
     0.0
     0.0
     0.0
     0.0
     0.0
     0.0
     0.0
     0.0
     0.0
     0.0
     0.0
     0.0
     0.0
     0.0
     0.0
     0.0
     0.0
     0.0
     0.0
     0.0
     0.0
     0.0
     0.0
     0.0
     0.0
     0.0
     0.0
     0.0
     0.0
     0.0
     0.0
     0.0
     0.0
     0.0
     0.0
     0.0
     0.0
     0.0
     0.0
     0.0
     0.0
   300.6
   566.8
   700.5
   661.4
   650.1
   700.4
   700.2
   700.3
   700.3
   700.3
   700.3
   700.4
   700.4
   700.3
   700.3
   700.1
   381.4
   700.3
   700.3
   700.3
   700.4
   700.4
   700.2
   698.4
   700.4
   700.2
   700.2
   700.3
   700.3
   700.4
   700.3
   700.2
   700.2
   700.4
   687.1
   700.2
   700.4
   620.0
   600.2
   700.4
    69.3
   145.4
    43.4
    56.6
   199.5
    57.0
    75.5
    64.2
    85.9
    62.8
   118.1
    82.7
    96.5
   103.2
   138.0
    84.4
   118.5
    87.2
    93.5
    99.8
   103.3
   162.2
    83.2
   169.4
   110.8
   138.7
    94.4
   127.1
    64.9
   136.4
   163.4
    63.3
    93.3
   103.4
    67.8
    79.3
   142.9
   181.4
   116.9
    68.8
   102.4
   159.2
    79.7
    90.5
   157.9
    88.8
   145.2
    82.1
    60.1
    93.4
   112.8
   151.7
   102.7
   130.1
   104.5
   128.7
   124.2
    75.7
   120.0
   102.1
    81.2
   102.3
    99.5
    61.5
   135.1
   137.9
    78.2
    74.9
   135.3
   114.1
   143.6
    75.2
    70.9
    63.3
    73.5
   123.0
    60.6
   100.3
    66.0
   143.6
   146.1
   112.1
    79.9
    62.4
    40.2
   120.1
    91.2
    69.2
    73.0
   138.4
    73.2
   129.8
   184.4
   118.9
   118.9
   124.4
   109.6
    47.5
   150.2
    57.4
   639.4
   700.4
   700.7
   700.1
   700.6
   700.6
   700.5
   700.5
   700.3
   700.3
   700.4
   700.2
   700.3
   700.4
   700.3
   700.3
   700.3
   532.9
   700.3
   700.2
   689.5
   700.3
   700.3
   700.5
   700.5
   700.1
   700.2
   700.5
   700.4
   700.4
   700.4
   700.3
   700.4
   700.3
   700.3
   700.4
   700.4
   700.4
   700.2
   688.9
   392.5
   700.1
   700.3
   700.3
   700.3
   700.2
   700.2
   700.6
   700.3
   700.3
   700.3
   482.9
   700.2
   700.1
   439.0
   700.2
   700.3
   700.3
   699.0
   700.4
   700.3
   700.3
   700.4
   700.3
   590.6
   700.3
   577.0
   518.2
   563.9
   418.8
   700.4
   700.3
   700.2
   700.3
   700.3
   700.3
   700.3
   700.3
   700.7
   700.1
   700.6
   700.4
   700.2
   700.3
   553.1
   700.2
   628.3
   700.3
   700.3
   700.1
   700.2
   700.4
   700.4
   700.3
   700.2
   700.3
   700.3
   700.2
   700.6
   700.3
   700.2
   700.1
   700.2
   700.3
   585.2
   700.3
   700.3
   700.3
   700.3
   359.6
    84.4
   700.4
   376.1
   253.5
   341.9
   323.4
   289.2
   296.2
   700.3
   700.3
   700.3
   207.7
   239.6
   213.1
   188.5
   242.9
   180.0
   340.0
   294.2
   284.3
   297.8
   272.8
   327.6
   282.9
   359.3
   267.0
   282.9
   328.6
   309.3
   266.4
   328.8
   407.3
   324.6
   328.9
   390.5
   370.0
   384.3
   381.6
   373.3
   385.6
   389.2
   334.8
   340.7
   363.7
   366.4
   362.1
   412.3
   392.1
   357.7
   371.3
   373.7
   382.8
   334.9
   358.9
   397.7
   398.3
   364.3
   336.1
   376.8
   265.1
   422.7
   354.7
   412.7
   436.2
   418.9
   411.0
   433.8
   429.9
   423.1
   418.4
   438.7
   427.5
   480.4
   473.6
   477.5
   469.6
   467.8
   470.3
   363.2
SCALARS discharge float 1
LOOKUP_TABLE default
  0.1003E+05
  0.1899E+07
  0.1344E+08
  0.2001E+07
  0.2177E+08
  0.1211E+07
  0.2286E+08
  0.1415E+07
  0.3262E+07
  0.1328E+07
  0.3351E+08
  0.2317E+07
  0.3853E+08
  0.1447E+07
  0.1677E+08
  0.2149E+07
  0.1806E+08
  0.1875E+07
  0.6991E+07
  0.1373E+07
  0.3407E+08
  0.2094E+07
  0.4866E+07
  0.1153E+07
  0.1824E+07
  0.4112E+08
  0.2122E+07
  0.5051E+07
  0.3586E+08
  0.1482E+07
  0.1012E+08
  0.1888E+07
  0.1489E+08
  0.1709E+07
  0.9784E+07
  0.1058E+07
  0.4918E+08
  0.3717E+07
  0.1773E+07
  0.9293E+07
  0.1166E+07
  0.4828E+08
  0.1091E+07
  0.1573E+08
  0.2568E+08
  0.8664E+06
  0.1963E+07
  0.1029E+07
  0.1126E+08
  0.1124E+07
  0.7220E+04
  0.3321E+05
  0.7196E+07
  0.3061E+07
  0.5371E+07
  0.7249E+07
  0.2799E+08
  0.1847E+07
  0.2898E+07
  0.5442E+07
  0.4119E+07
  0.1257E+07
  0.2033E+08
  0.1936E+07
  0.1873E+08
  0.2720E+07
  0.2033E+08
  0.5425E+06
  0.7318E+06
  0.7249E+07
  0.8746E+07
  0.3737E+08
  0.1934E+07
  0.8020E+06
  0.1406E+08
  0.1522E+07
  0.2345E+08
  0.8107E+07
  0.2605E+07
  0.7629E+04
  0.3251E+05
  0.2225E+07
  0.3640E+07
  0.1202E+08
  0.4066E+07
  0.4469E+07
  0.2359E+08
  0.2939E+07
  0.3165E+08
  0.3416E+07
  0.1004E+08
  0.2614E+07
  0.4301E+07
  0.1355E+08
  0.1321E+08
  0.1646E+08
  0.1800E+08
  0.9753E+07
  0.2498E+07
  0.1096E+08
  0.4339E+07
  0.2001E+07
  0.3257E+08
  0.4915E+07
  0.2671E+08
  0.1271E+07
  0.8542E+07
  0.2017E+08
  0.2131E+07
  0.4689E+07
  0.2620E+07
  0.1909E+05
  0.6463E+07
  0.1521E+07
  0.6017E+06
  0.1813E+07
  0.9744E+07
  0.8821E+07
  0.1501E+08
  0.8474E+06
  0.2141E+07
  0.5494E+07
  0.8925E+07
  0.1205E+07
  0.1003E+07
  0.4874E+07
  0.1764E+07
  0.2601E+07
  0.2065E+07
  0.3836E+07
  0.7910E+07
  0.4332E+07
  0.2085E+08
  0.1875E+08
  0.8487E+07
  0.5005E+07
  0.9138E+07
  0.1117E+07
  0.4564E+07
  0.1470E+08
  0.1533E+08
  0.5119E+07
  0.2656E+07
  0.1679E+08
  0.8106E+07
  0.4140E+07
  0.2580E+07
  0.4900E+07
  0.1013E+07
  0.1079E+08
  0.2661E+07
  0.2420E+07
  0.2645E+07
  0.1152E+08
  0.2700E+07
  0.9709E+07
  0.2847E+07
  0.4237E+07
  0.2088E+08
  0.5926E+07
  0.2395E+07
  0.4196E+07
  0.1316E+08
  0.1440E+08
  0.5317E+07
  0.4639E+07
  0.2576E+07
  0.1112E+07
  0.5419E+07
  0.1207E+08
  0.1462E+08
  0.1032E+08
  0.7782E+07
  0.8301E+07
  0.2523E+07
  0.2050E+07
  0.2872E+07
  0.7077E+07
  0.1047E+08
  0.2315E+07