# vtk DataFile Version 3.0
Landscape
ASCII
DATASET UNSTRUCTURED_GRID
POINTS       2234 float
           0.000           0.000           0.000
        1600.000           0.000           0.000
        3200.000           0.000           0.000
        4800.000           0.000           0.000
        6400.000           0.000           0.000
        8000.000           0.000           0.000
        9600.000           0.000           0.000
       11200.000           0.000           0.000
       12800.000           0.000           0.000
       14400.001           0.000           0.000
       16000.000           0.000           0.000
       17600.000           0.000           0.000
       19200.000           0.000           0.000
       20799.999           0.000           0.000
       22400.000           0.000           0.000
       24000.001           0.000           0.000
       25599.999           0.000           0.000
       27200.000           0.000           0.000
       28800.001           0.000           0.000
       30400.000           0.000           0.000
       32000.000           0.000           0.000
       33599.999           0.000           0.000
       35200.000           0.000           0.000
       36800.001           0.000           0.000
       38399.999           0.000           0.000
       40000.000           0.000           0.000
       41599.998           0.000           0.000
       43200.002           0.000           0.000
       44800.000           0.000           0.000
       46399.999           0.000           0.000
       48000.002           0.000           0.000
       49600.000           0.000           0.000
       51199.999           0.000           0.000
       52800.002           0.000           0.000
       54400.001           0.000           0.000
       55999.999           0.000           0.000
       57600.002           0.000           0.000
       59200.001           0.000           0.000
       60799.999           0.000           0.000
       62399.998           0.000           0.000
       64000.001           0.000           0.000
       65599.999           0.000           0.000
       67199.998           0.000           0.000
       68800.001           0.000           0.000
       70400.000           0.000           0.000
       71999.998           0.000           0.000
       73600.001           0.000           0.000
       75200.000           0.000           0.000
       76799.998           0.000           0.000
       78400.002           0.000           0.000
       80000.000           0.000           0.000
           0.000        1600.000           0.000
        1820.535        1836.129         179.478
        4436.497        1560.645         233.071
        8231.839        1585.959         203.720
       11192.297        1979.624         141.122
       14535.388        1860.001          63.705
       17224.315        1919.917         382.078
       20899.237        1802.853         301.155
       23731.335        1792.943         213.726
       27507.238        1603.221         220.706
       30065.602        1613.570         347.861
       33371.579        1994.991          40.300
       37099.539        1414.823         326.514
       38196.713        1837.356          81.960
       41840.942        1855.796         362.057
       43418.644        1867.336          55.013
       49975.028        1831.460         266.565
       52954.322        1538.422         130.863
       55816.240        1531.934         172.791
       59004.449        1641.677          40.343
       60471.826        1510.939         312.594
       63784.513        1656.536         262.283
       67301.210        1771.228         134.220
       70381.695        1920.216         319.996
       72217.113        1448.806          88.603
       75069.462        1621.662         160.775
       78696.327        1722.356         248.694
       80000.000        1600.000           0.000
           0.000        3200.000           0.000
        3274.399        3217.174         472.791
        5160.666        3300.186         246.189
        6043.012        3262.445         123.871
        9502.865        3552.908         321.468
       11056.006        2840.019         206.230
       14606.628        2840.755          91.395
       17562.634        3511.308         235.288
       18833.142        3539.080          68.301
       22026.411        2868.051         272.496
       25600.029        2863.835         101.019
       27192.156        3106.980         339.510
       30375.600        2888.881         250.200
       33224.678        2857.386          56.053
       36841.038        3085.085         145.982
       40238.304        3524.647          91.837
       43557.179        3128.631          86.283
       46228.872        2830.415         146.212
       48146.017        3166.706         384.220
       51153.215        2952.745          63.430
       53124.514        2981.904         238.257
       56001.007        3429.944         456.885
       59307.581        3225.477          71.926
       62124.444        3154.870         335.831
       64132.610        2904.590          91.293
       67439.924        3451.420         525.660
       68998.763        3472.006         158.568
       72219.436        2879.026         147.111
       75532.535        3132.944         360.941
       78652.387        3551.841         174.283
       80000.000        3200.000           0.000
           0.000        4800.000           0.000
        1400.060        4439.660         183.311
        4786.648        4655.285         480.860
       11454.778        4403.585         369.463
       14098.429        4923.032         162.297
       17912.789        5043.475         129.067
       20446.875        4859.061         124.920
       24108.597        4895.159         440.325
       27234.832        4431.193         266.815
       28696.423        4449.033         646.726
       32196.694        4589.490          95.733
       33867.228        4797.771         483.534
       34933.129        4760.558         541.916
       38067.139        5053.208         448.929
       41605.852        4581.133         352.578
       44854.687        5021.321         502.044
       48175.269        4416.823         411.161
       51163.202        5122.950         118.281
       54186.876        4703.411         510.795
       56317.818        4828.699         397.927
       59169.326        5108.954         112.856
       62536.999        4516.819         161.745
       65848.099        4445.450         334.390
       68694.276        4766.024         229.109
       71946.222        4752.098         252.001
       75433.121        5067.460         612.499
       78033.243        4664.320         189.600
       80000.000        4800.000           0.000
           0.000        6400.000           0.000
        2841.623        6773.290         235.836
        6245.685        6376.243         498.337
        7744.385        6030.238         317.155
       11368.686        6592.994         385.829
       14270.010        6704.916         330.442
       17330.427        6370.488         189.543
       19571.144        6573.041         321.597
       22641.152        6627.002         611.593
       23763.572        6012.529         507.115
       27463.089        6427.221         563.791
       30273.002        6504.167         315.585
       33884.178        6077.220         319.389
       35390.886        6255.305         307.570
       38075.664        6205.118         587.314
       40048.604        6389.405         178.842
       43255.311        6307.072         199.986
       46126.564        6231.346         462.226
       48285.057        6596.744         397.840
       51294.080        6157.575         150.138
       54250.249        6543.358         762.835
       57921.865        6224.397         219.101
       59558.312        6004.572         136.907
       62425.662        6132.109         218.976
       65724.696        6341.122         537.538
       68956.079        6674.843         523.707
       72380.520        6490.972         479.527
       75318.037        6459.550         565.639
       78160.955        6114.578         226.814
       80000.000        6400.000           0.000
           0.000        8000.000           0.000
        3576.129        8217.635         215.402
        5061.593        7652.754         327.986
        8105.944        7856.844         526.499
       11121.498        7830.817         585.270
       14531.786        8256.985         581.799
       16036.950        7761.051         479.738
       19087.239        8020.414         532.111
       22626.171        7850.784         443.038
       25653.785        8135.625         606.838
       28733.316        8014.857         493.157
       30647.917        7622.140         180.257
       31669.813        8123.016         477.944
       35544.551        8083.612         426.557
       38771.621        7743.567         255.926
       41941.639        8315.419         628.804
       44649.095        8053.831         365.500
       48005.993        8300.872         648.126
       51584.272        8303.210         555.645
       52951.115        7723.006         437.021
       55834.828        8389.314         548.928
       58839.904        7674.993         188.592
       60484.772        8202.290         530.804
       63784.723        8145.830         330.205
       67326.420        8175.747         799.857
       68571.734        8073.207         798.463
       72193.925        8373.058         753.332
       73714.578        7878.720         445.587
       77044.523        8185.581         154.816
       78448.742        7636.455          85.018
       80000.000        8000.000           0.000
           0.000        9600.000           0.000
        3060.393        9702.503          96.874
        6737.398        9989.628         224.227
[...]
POINT_DATA       2234
SCALARS height float 1
LOOKUP_TABLE default
     0.0
     0.0
     0.0
     0.0
     0.0
     0.0
     0.0
     0.0
     0.0
     0.0
     0.0
     0.0
     0.0
     0.0
     0.0
     0.0
     0.0
     0.0
     0.0
     0.0
     0.0
     0.0
     0.0
     0.0
     0.0
     0.0
     0.0
     0.0
     0.0
     0.0
     0.0
     0.0
     0.0
     0.0
     0.0
     0.0
     0.0
     0.0
     0.0
     0.0
     0.0
     0.0
     0.0
     0.0
     0.0
     0.0
     0.0
     0.0
     0.0
     0.0
     0.0
     0.0
   179.5
   233.1
   203.7
   141.1
    63.7
   382.1
   301.2
   213.7
   220.7
   347.9
    40.3
   326.5
    82.0
   362.1
    55.0
   266.6
   130.9
   172.8
    40.3
   312.6
   262.3
   134.2
   320.0
    88.6
   160.8
   248.7
     0.0
     0.0
   472.8
   246.2
   123.9
   321.5
   206.2
    91.4
   235.3
    68.3
   272.5
   101.0
   339.5
   250.2
    56.1
   146.0
    91.8
    86.3
   146.2
   384.2
    63.4
   238.3
   456.9
    71.9
   335.8
    91.3
   525.7
   158.6
   147.1
   360.9
   174.3
     0.0
     0.0
   183.3
   480.9
   369.5
   162.3
   129.1
   124.9
   440.3
   266.8
   646.7
    95.7
   483.5
   541.9
   448.9
   352.6
   502.0
   411.2
   118.3
   510.8
   397.9
   112.9
   161.7
   334.4
   229.1
   252.0
   612.5
   189.6
     0.0
     0.0
   235.8
   498.3
   317.2
   385.8
   330.4
   189.5
   321.6
   611.6
   507.1
   563.8
   315.6
   319.4
   307.6
   587.3
   178.8
   200.0
   462.2
   397.8
   150.1
   762.8
   219.1
   136.9
   219.0
   537.5
   523.7
   479.5
   565.6
   226.8
     0.0
     0.0
   215.4
   328.0
   526.5
   585.3
   581.8
   479.7
   532.1
   443.0
   606.8
   493.2
   180.3
   477.9
   426.6
   255.9
   628.8
   365.5
   648.1
   555.6
   437.0
   548.9
   188.6
   530.8
   330.2
   799.9
   798.5
   753.3
   445.6
   154.8
    85.0
     0.0
     0.0
    96.9
   224.2
   633.2
   462.5
   810.0
   723.1
   567.7
   873.9
   936.6
   642.8
   233.5
   923.4
   677.0
   371.9
   667.9
   848.2
   492.1
   969.9
   430.8
   794.1
   976.0
   400.6
   743.8
   696.4
   856.9
  1099.1
   964.3
   420.2
   274.7
     0.0
     0.0
   396.3
   431.9
   456.0
   917.1
   951.5
   992.9
   757.1
  1003.7
   884.2
   311.2
  1084.1
   799.0
   678.2
   881.3
   828.0
   834.6
  1077.4
   739.4
  1110.7
   828.9
   639.3
   345.6
   761.2
   820.4
  1109.0
   654.0
   632.8
   622.5
   514.6
   191.3
     0.0
     0.0
   553.6
   602.4
   644.3
   775.3
   873.6
  1108.2
  1108.4
  1097.6
  1122.5
  1300.4
  1078.0
   766.9
   600.4
  1072.6
  1022.3
  1082.8
  1124.9
   928.4
  1059.4
  1029.4
  1026.4
  1184.7
   631.5
   534.2
   901.7
  1077.4
  1176.1
   617.4
   438.9
   203.6
   138.1
    84.5
     0.0
     0.0
   133.9
   269.6
   319.1
   433.6
   762.5
  1142.9
  1300.2
  1300.2
  1300.4
  1105.9
  1002.3
   993.1
  1300.5
  1300.5
  1300.5
  1227.6
  1184.4
  1284.6
  1227.9
  1300.2
  1054.5
   732.9
  1254.2
  1209.2
  1070.6
   653.1
   544.5
   320.0
     0.0
     0.0
    82.5
   166.5
   289.1
   746.5
  1229.3
  1300.2
  1300.4
  1300.4
  1300.4
  1300.4
  1167.8
  1203.9
  1263.8
  1300.3
  1300.5
  1300.3
  1300.3
  1289.0
  1300.2
  1198.6
  1177.3
  1180.8
  1300.3
  1215.9
  1067.4
   801.1
   625.6
   234.1
   317.3
     0.0
     0.0
   342.1
   541.8
   823.2
   910.8
  1234.0
  1300.3
  1300.4
  1300.4
  1300.4
  1300.4
  1296.8
  1279.6
  1294.0
  1296.5
  1300.2
  1300.2
  1300.3
  1300.3
  1300.2
  1300.2
  1300.3
  1300.3
  1300.3
  1127.1
   608.7
   644.2
   403.7
    62.1
     0.0
     0.0
   444.6
   244.1
   472.5
   664.8
   934.4
  1269.7
  1300.3
  1300.4
  1300.4
  1300.4
  1300.3
  1300.3
  1300.3
  1300.3
  1300.2
  1300.2
  1300.3
  1300.3
  1300.3
  1300.2
  1300.3
  1300.3
  1300.3
  1156.3
   925.1
   306.7
   154.5
   341.8
     0.0
     0.0
    66.0
   136.6
   312.2
   520.9
   713.6
  1200.8
  1300.3
  1300.4
  1300.4
  1300.4
  1300.4
  1300.3
  1300.3
  1300.4
  1300.1
  1300.3
  1300.3
  1300.3
  1300.3
  1300.3
  1300.2
  1300.3
  1300.3
  1200.5
   681.6
   650.4
   468.8
   507.4
   255.5
     0.0
     0.0
   300.6
   271.5
   471.4
   620.5
  1137.8
  1300.3
  1300.3
  1300.4
  1300.4
  1300.3
  1300.4
  1300.4
  1300.4
  1300.4
  1300.4
  1300.1
  1300.1
  1300.4
  1300.3
  1300.1
  1300.1
  1300.4
  1262.0
  1187.8
   983.9
   858.8
   518.4
   348.4
   111.7
     0.0
     0.0
   244.4
   524.3
   768.0
   848.4
  1088.2
  1300.3
  1300.3
  1300.4
  1300.4
  1300.3
  1300.3
  1300.3
  1300.4
  1300.4
  1300.4
  1300.2
  1300.3
  1300.3
  1300.4
  1300.4
  1300.4
  1300.1
  1300.1
  1300.1
  1300.4
  1266.7
   925.4
   669.3
   391.2
   239.0
     0.0
     0.0
   126.3
   275.6
   478.1
   966.6
  1142.6
  1300.5
  1300.3
  1300.6
  1300.6
  1300.3
  1300.3
  1300.3
  1300.5
  1300.4
  1300.4
  1300.2
  1300.3
  1300.3
  1300.3
  1300.3
  1300.4
  1300.1
  1300.1
  1300.4
  1300.4
   971.7
   360.3
   197.9
   143.9
    77.5
     0.0
     0.0
   165.2
   509.7
   676.9
   730.6
  1243.4
  1300.3
  1300.3
  1300.2
  1300.6
  1300.4
  1300.3
  1300.3
  1300.5
  1300.4
  1300.4
  1300.3
  1300.3
  1300.3
  1300.3
  1300.3
  1300.1
  1300.1
  1300.4
  1187.1
   944.1
   702.9
   382.6
   365.1
     0.0
     0.0
   388.6
   298.6
   206.9
   385.6
   855.7
  1227.8
  1300.2
  1300.4
  1300.4
  1300.3
  1300.3
  1300.5
  1300.4
  1300.4
  1300.3
  1300.2
  1300.3
  1300.3
  1300.1
  1300.1
  1300.1
  1300.3
  1088.4
   721.5
   457.3
   504.9
   147.2
     0.0
     0.0
   363.2
    98.1
   550.5
   557.6
   642.3
   981.8
  1290.3
  1300.2
  1300.4
  1300.4
  1300.3
  1300.5
  1300.3
  1300.3
  1300.3
  1300.3
  1300.4
  1300.3
  1300.1
  1300.3
  1300.3
  1300.1
  1300.3
  1300.3
  1021.7
   465.1
   193.6
   482.9
   320.1
     0.0
     0.0
    57.3
   101.8
   177.2
   249.4
   660.2
  1120.8
  1300.2
  1300.3
  1300.3
  1300.3
  1300.3
  1300.3
  1300.5
  1300.5
  1300.3
  1300.3
  1300.3
  1300.4
  1300.3
  1300.3
  1300.3
  1300.3
  1300.3
  1300.3
  1300.3
  1264.0
   901.0
   553.5
   129.7
   273.3
     0.0
     0.0
   227.7
   297.3
   550.0
   606.1
   960.4
  1290.6
  1300.3
  1300.3
  1300.3
  1300.3
  1300.3
  1300.5
  1300.3
  1300.3
  1300.4
  1300.4
  1300.4
  1300.4
  1300.3
  1300.3
  1300.3
  1300.3
  1300.3
  1296.8
  1091.4
   625.4
   136.9
    37.2
     0.0
     0.0
   195.9
   331.6
   583.5
   873.8
   996.9
  1300.4
  1300.4
  1300.3
  1300.2
  1300.2
  1300.5
  1300.5
  1300.3
  1300.4
  1300.4
  1300.4
  1300.4
  1300.3
  1300.3
  1300.3
  1300.3
  1300.3
  1300.4
  1238.8
   719.9
   495.5
   194.2
   337.1
   311.0
     0.0
     0.0
   319.6
   311.4
   347.2
   608.0
   914.4
  1124.1
  1300.4
  1300.3
  1300.2
  1300.2
  1300.5
  1300.5
  1300.3
  1300.4
  1300.4
  1300.3
  1300.4
  1300.4
  1300.3
  1300.3
  1300.4
  1300.3
  1190.3
   839.9
   618.7
   618.9
   626.4
   120.0
     0.0
     0.0
    59.9
   124.0
   199.5
   266.1
   657.3
  1156.6
  1300.2
  1300.3
  1300.4
  1300.4
  1300.5
  1300.3
  1300.4
  1300.2
  1300.3
  1300.4
  1300.4
  1300.3
  1300.4
  1300.4
  1300.3
  1182.2
  1036.3
   816.4
   754.7
   494.0
   268.2
     0.0
     0.0
   182.6
   488.0
   400.0
   582.8
   713.0
  1233.9
  1295.1
  1300.3
  1300.4
  1300.4
  1300.4
  1300.5
  1300.4
  1300.4
  1300.4
  1300.4
  1300.4
  1300.2
  1300.4
  1300.2
  1300.4
  1300.4
  1300.4
  1300.4
  1091.7
   786.4
   504.8
   602.9
   360.4
   125.2
     0.0
     0.0
   456.8
   381.6
   393.3
   698.0
  1038.1
  1156.2
  1252.5
  1289.5
  1300.3
  1300.3
  1300.4
  1300.5
  1300.4
  1300.4
  1300.4
  1300.4
  1300.2
  1300.2
  1300.2
  1300.2
  1300.4
  1300.4
  1300.4
   976.0
   649.5
   340.3
   226.3
   503.7
   186.0
     0.0
     0.0
   199.8
   410.6
   174.4
   540.7
  1027.2
  1230.2
  1267.2
  1300.3
  1298.3
  1300.3
  1300.5
  1300.4
  1300.4
  1300.4
  1300.4
  1300.3
  1300.3
  1300.3
  1300.2
  1300.3
  1300.3
  1300.3
  1300.4
  1300.4
   973.7
   826.7
   493.5
   114.5
   245.8
     0.0
     0.0
    82.4
   433.7
   345.8
   647.8
  1156.5
  1300.3
  1300.3
  1300.1
  1300.5
  1300.5
  1300.5
  1300.4
  1300.4
  1300.4
  1300.4
  1300.4
  1300.3
  1300.3
  1300.4
  1300.3
  1300.3
  1300.3
  1300.3
  1300.3
  1199.0
   999.9
   516.2
   269.2
   120.6
    83.6
    48.1
     0.0
     0.0
    67.1
   220.9
   750.1
   890.6
  1026.9
  1126.0
  1300.3
  1300.3
  1300.3
  1300.5
  1300.5
  1300.4
  1300.4
  1300.4
  1300.4
  1300.4
  1300.3
  1300.3
  1300.3
  1300.3
  1300.3
  1300.3
  1300.3
  1300.3
  1216.5
  1075.8
   591.6
   423.7
   353.8
   210.9
   201.5
     0.0
     0.0
   202.4
   487.3
   607.1
   902.6
   943.2
  1300.4
  1300.4
  1300.5
  1300.4
  1300.4
  1300.4
  1300.4
  1300.3
  1300.3
  1300.3
  1300.4
  1300.4
  1300.4
  1300.2
  1300.2
  1300.4
  1221.8
   916.0
   470.8
   474.9
   307.8
     0.0
     0.0
   202.3
   488.3
   308.2
   432.3
   977.4
  1300.4
  1300.4
  1300.4
  1300.3
  1300.4
  1300.4
  1300.2
  1300.2
  1300.3
  1300.3
  1300.3
  1300.4
  1300.4
  1300.4
  1300.4
  1300.5
  1300.2
  1300.4
  1300.4
  1134.5
   813.6
   573.8
   252.4
     0.0
     0.0
   142.0
   297.3
   462.4
   186.5
   326.8
  1063.7
  1300.4
  1300.4
  1300.4
  1300.3
  1300.4
  1300.4
  1300.4
  1300.3
  1300.3
  1300.4
  1300.4
  1300.4
  1300.4
  1300.4
  1300.5
  1300.1
  1300.2
  1300.4
   972.8
   471.8
   239.3
   102.4
     0.0
     0.0
    33.2
    82.4
   108.4
   453.6
   585.3
  1073.1
  1252.8
  1300.3
  1300.4
  1300.4
  1300.4
  1300.4
  1300.4
  1300.3
  1300.2
  1300.4
  1300.4
  1300.4
  1300.4
  1300.2
  1300.3
  1300.3
  1300.3
  1282.4
   820.1
   598.8
   687.7
   604.7
   344.3
     0.0
     0.0
   324.0
   277.7
   293.9
   796.4
  1016.1
  1181.8
  1223.6
  1300.2
  1300.3
  1300.4
  1300.4
  1300.4
  1300.4
  1300.3
  1300.3
  1300.4
  1300.3
  1300.4
  1300.4
  1300.4
  1300.2
  1300.3
  1300.2
   955.8
   665.1
   283.1
   429.1
    98.6
    50.1
     0.0
     0.0
   333.7
   555.6
   641.3
   975.3
  1225.9
  1283.0
  1300.2
  1300.2
  1300.3
  1300.4
  1300.4
  1300.5
  1300.3
  1300.3
  1300.3
  1300.3
  1300.3
  1300.3
  1300.4
  1300.1
  1300.3
  1300.3
  1300.3
  1290.7
  1146.1
   629.9
   331.6
   151.8
   375.2
     0.0
     0.0
    81.6
   544.3
   690.0
   596.8
  1029.5
  1300.1
  1297.7
  1300.2
  1300.2
  1300.3
  1300.4
  1300.2
  1300.5
  1300.3
  1300.3
  1300.3
  1300.3
  1300.1
  1300.1
  1300.3
  1300.3
  1300.3
  1300.4
   893.1
  1110.6
   608.3
   253.0
   278.3
     0.0
     0.0
   113.4
   207.0
   384.5
   946.0
  1249.8
  1300.1
  1300.2
  1300.3
  1300.3
  1300.4
  1300.2
  1300.3
  1300.3
  1300.2
  1300.2
  1300.2
  1300.2
  1300.2
  1300.2
  1300.2
  1300.3
  1300.3
  1300.4
  1300.4
  1139.2
   897.5
   627.4
   565.4
   211.0
     0.0
     0.0
   172.5
   527.3
   574.1
   522.1
  1027.0
   968.8
  1297.1
  1300.2
  1300.2
  1300.1
  1293.7
  1269.8
  1300.2
  1300.2
  1300.3
  1300.2
  1300.2
  1300.2
  1300.3
  1300.2
  1300.1
  1300.3
  1300.4
  1300.4
  1241.6
   606.7
   376.1
   188.8
   303.6
   371.7
     0.0
     0.0
   115.8
   622.8
   645.3
   904.4
  1300.3
  1300.3
  1300.2
  1300.2
  1300.1
  1201.1
  1173.3
  1300.2
  1300.2
  1300.2
  1300.4
  1300.4
  1300.4
  1300.4
  1300.3
  1297.7
  1300.1
  1300.3
  1300.3
  1300.3
   856.0
   663.8
   526.3
    81.3
    44.6
     0.0
     0.0
    57.1
   359.8
   218.4
   475.4
  1010.9
  1300.3
  1218.6
  1187.1
  1063.1
  1235.1
   901.9
  1249.5
  1300.2
  1300.2
  1300.2
  1300.4
  1300.4
  1300.4
  1300.3
  1281.5
  1300.1
  1300.3
  1300.3
  1300.3
  1071.0
   543.4
   260.8
   196.9
   155.7
   289.1
     0.0
     0.0
   182.3
   603.7
   587.2
   901.7
  1133.9
  1120.3
   962.0
   811.1
  1027.4
   923.4
  1246.0
  1179.3
  1101.3
  1281.9
  1298.6
  1228.6
  1091.2
  1251.3
  1199.9
  1300.1
  1300.3
  1300.3
  1300.3
  1300.3
  1033.9
   687.6
   304.5
   395.2
   170.7
     0.0
     0.0
   267.3
   435.4
   334.1
  1020.9
  1105.3
  1000.9
   968.2
   919.5
   476.7
   698.9
   435.7
  1141.0
  1201.2
   807.4
   950.4
  1083.0
  1215.1
  1058.0
  1125.2
  1053.6
  1215.5
  1300.3
  1300.4
  1300.4
  1300.4
  1210.0
  1000.5
   454.7
   372.3
   158.2
     0.0
     0.0
    93.5
   482.1
   582.1
   858.5
   870.8
   716.2
   744.5
   660.8
   655.0
   321.1
   669.1
  1049.1
   750.4
   955.6
   904.0
  1117.2
   848.8
   795.6
   840.5
   714.0
  1005.9
  1048.9
  1192.6
   986.0
  1052.0
  1056.1
   756.7
   431.2
   545.0
     0.0
     0.0
   216.1
   169.4
   316.6
   586.7
   772.6
   355.0
   478.7
   499.4
   275.0
   195.5
   446.3
  1009.1
   838.1
   318.9
   604.8
   537.0
   889.1
   424.4
   361.8
   642.5
   728.8
  1067.6
   861.2
   843.3
   555.0
   808.8
   521.6
   185.9
   217.4
     0.0
     0.0
   414.1
   248.0
   693.2
   367.5
   692.8
   674.0
   229.1
   562.1
   176.7
   407.4
   632.4
   895.9
   216.6
   250.2
   786.7
   574.6
   199.1
   293.4
   621.7
   501.8
   736.2
   814.9
   631.4
   349.2
   909.8
   785.7
   410.7
   100.0
     0.0
     0.0
   164.3
   417.9
   406.7
   247.6
   391.6
   239.6
   463.6
   523.2
   115.6
   538.1
   643.0
   700.2
   387.6
   145.0
   474.7
   419.3
   311.2
   158.3
   425.5
   274.8
   354.9
   290.2
   297.0
   243.2
   560.8
   411.1
   439.5
   240.9
     0.0
     0.0
   246.9
   432.4
   378.0
   288.7
   127.0
   454.2
   489.9
   149.5
   524.8
    78.2
   223.9
   379.3
   363.5
   442.4
   101.0
   235.0
   536.3
   210.7
    88.7
   478.4
   639.6
   175.0
   428.6
   193.8
   560.8
   138.9
   772.7
   281.8
   356.9
   270.0
     0.0
     0.0
   343.8
   170.4
   547.8
    74.2
   444.5
   319.0
   320.0
    60.6
   224.5
   300.4
    52.5
   126.3
   207.8
   286.8
   362.9
   249.4
    68.7
   479.1
   108.6
   334.2
    48.2
   435.9
   367.3
    97.2
   160.4
   355.0
    77.2
   406.7
   288.6
   122.2
   235.0
   328.6
     0.0
     0.0
   375.0
   256.2
   187.2
   278.5
   154.9
   291.4
   130.6
   258.0
    37.3
   292.0
   157.1
   125.7
    42.6
   270.5
    70.9
   293.1
   220.5
   108.0
    59.2
    86.8
    82.7
   194.9
   149.3
   125.3
   305.8
   436.3
   176.2
     0.0
     0.0
     0.0
     0.0
     0.0
     0.0
     0.0
     0.0
     0.0
     0.0
     0.0
     0.0
     0.0
     0.0
     0.0
     0.0
     0.0
     0.0
     0.0
     0.0
     0.0
     0.0
     0.0
     0.0
     0.0
     0.0
     0.0
     0.0
     0.0
     0.0
     0.0
     0.0
     0.0
     0.0
     0.0
     0.0
     0.0
     0.0
     0.0
     0.0
     0.0
     0.0
     0.0
     0.0
     0.0
     0.0
     0.0
     0.0
     0.0
     0.0
     0.0
     0.0
   122.4
   466.3
   256.5
   653.9
   273.5
   639.0
   520.1
  1164.3
  1186.0
  1300.3
  1300.4
   802.3
  1300.3
  1300.3
  1300.1
   132.4
   614.0
  1300.3
  1300.3
  1300.4
  1300.4
  1300.2
   490.6
  1300.4
  1300.2
  1300.2
  1300.3
  1300.3
  1300.4
  1300.0
   625.1
  1291.7
  1283.1
   432.9
   748.0
   666.5
   474.6
   381.1
    59.2
   238.5
    18.0
    38.6
    35.1
    68.7
    43.0
    61.0
    33.3
   122.0
    50.4
    41.6
    72.1
   148.5
    29.9
   153.5
    86.5
    95.2
   105.7
    47.4
   166.2
    93.1
   178.5
    39.1
   141.2
    39.6
   135.5
    27.9
   163.5
   165.8
    29.9
   103.4
    65.6
    35.0
    75.9
   151.9
   255.1
   140.6
    29.9
    94.5
   250.0
    29.7
    83.7
   177.1
    99.2
   180.8
    40.7
    23.4
    88.9
   136.3
   130.1
    47.6
   148.8
   122.1
   153.7
   147.3
    37.9
   133.3
   102.2
    84.2
    83.9
   121.9
    43.1
   112.6
   162.9
    45.9
    75.1
   129.6
   113.4
   146.2
    85.1
    37.3
    28.9
    58.2
   141.8
    24.7
    39.1
    58.2
   144.5
   148.3
   100.5
    79.5
    59.3
    18.7
   127.6
    75.3
    61.8
    21.1
   151.7
    44.4
   148.4
   247.6
   141.5
   147.5
   138.7
   128.6
    24.9
   168.4
    28.4
   585.0
   460.5
   668.1
   242.7
   589.9
   427.7
  1000.8
   709.4
   612.2
   775.2
  1300.4
  1300.2
  1300.3
  1281.5
  1300.3
  1300.2
  1300.3
   529.0
  1221.2
  1057.0
   542.8
  1300.3
   603.1
  1300.4
  1300.4
   974.6
  1300.2
  1300.4
  1300.4
  1300.4
  1298.2
  1300.2
  1300.4
  1300.3
  1262.4
  1300.4
  1300.4
  1300.4
  1121.7
   426.6
   198.6
  1300.1
  1300.3
  1300.3
  1300.3
  1300.2
  1299.3
  1104.1
  1300.3
  1300.3
  1300.3
   504.2
  1149.6
  1300.1
   329.6
  1299.8
  1299.7
   602.8
   941.2
   631.4
   411.6
   506.5
   621.6
   395.5
   368.9
   588.5
   462.0
   623.5
   208.2
  1300.4
  1300.3
  1294.0
  1300.3
  1300.0
  1294.4
  1293.9
   350.3
   574.0
   336.1
  1300.4
  1300.2
  1296.9
   520.7
   778.1
   424.5
  1300.3
  1300.3
  1174.9
  1300.2
  1300.4
  1300.4
  1124.2
  1079.3
  1300.3
  1300.3
  1300.2
  1098.8
  1300.3
  1186.1
  1300.1
   979.4
   410.2
   445.0
  1300.3
   515.7
  1272.5
  1273.5
   360.5
    78.4
  1300.4
   212.1
   176.5
   237.0
   134.6
    88.8
   159.9
   530.7
  1300.3
  1300.3
   134.6
   180.6
   182.5
    98.5
   139.3
    55.5
   235.3
   173.3
   131.9
   280.0
   186.7
   412.5
   122.8
   447.6
    84.1
    86.0
   275.7
   155.5
    87.4
   222.1
   482.2
   140.1
   157.2
   316.4
   255.0
   194.6
   168.4
   335.4
   279.6
   432.4
    99.1
   217.1
   296.5
   231.2
   358.3
   194.7
   214.6
   235.9
   339.1
   123.9
   187.0
    90.0
   125.8
   316.2
   308.9
   176.1
   232.3
   188.1
   130.5
   231.8
   116.0
   130.1
   138.5
   361.3
   144.0
   161.5
   383.3
   128.4
   192.9
   211.3
   326.0
   159.8
   381.4
   160.2
   281.5
   164.0
   335.2
   204.3
   204.9
   119.8
   435.9
   269.5
   135.3
   486.0
   332.9
   171.9
   519.9
   480.2
   398.7
   198.8
   148.2
   329.1
   267.1
   331.1
   566.9
   168.5
   394.2
   135.0
   288.7
   223.9
   122.1
   164.9
   185.6
   326.5
   162.0
   226.7
   434.3
   128.7
   311.9
   241.5
   143.3
   435.5
   190.9
   174.9
   243.5
   386.7
   125.3
   129.0
   264.3
   157.3
   256.0
   577.8
   274.7
   149.0
   116.8
   239.2
   389.3
   175.6
   287.0
   466.2
   490.2
   392.8
   522.5
   475.0
   186.1
   319.7
   226.7
   540.5
   327.5
   469.5
   486.4
   466.4
   206.7
   260.8
   231.1
   221.2
   281.3
   327.3
   218.4
   222.3
   281.4
   170.4
   153.6
   285.9
   211.8
   337.5
   301.3
   488.8
   232.6
   247.6
   336.2
   546.2
   398.5
   259.5
   313.0
   235.3
   244.5
   271.7
   324.2
   357.9
   227.0
   357.4
   271.0
   453.6
   347.7
   466.7
   304.4
   442.3
   241.2
   480.0
   318.8
   497.1
   604.9
   552.6
   235.9
   327.8
   321.0
   464.3
   294.4
   386.5
   261.6
   581.7
   417.7
   467.0
   380.9
   300.3
   256.6
   347.7
   397.2
   747.0
   380.3
   370.1
   563.7
   556.5
   330.4
   417.4
   227.4
   368.0
   370.1
   600.6
   441.0
   469.1
   274.4
   463.6
   568.3
   468.5
   340.6
   576.3
   712.0
   324.2
   462.3
   525.4
   378.2
   700.5
   424.3
   496.4
   326.5
   419.7
   398.5
   367.0
   452.3
   359.8
   458.1
   373.6
   511.0
   689.2
   705.5
   599.5
   366.5
   269.9
   440.9
   701.3
   719.9
   725.4
   638.9
   431.5
   449.7
   826.0
   713.2
   436.6
   689.9
   558.2
   717.9
   552.2
   499.9
   494.2
   530.4
   594.9
   594.1
   472.8
   584.0
   642.7
   490.6
   521.9
   309.7
   638.0
   577.0
   630.8
   599.8
   803.2
   648.6
   717.3
   780.9
   749.7
   638.4
   642.9
   862.5
   664.5
   589.2
   756.2
   743.3
   687.3
   741.2
   888.6
   712.6
   666.5
   680.6
   805.7
   635.2
   370.5
   556.5
   823.5
   697.9
   837.5
   628.9
   761.7
   775.2
   770.3
   769.0
   935.1
   868.3
   421.4
   589.8
   766.8
   770.7
   882.7
   647.1
   799.2
   849.9
   668.8
   863.6
   758.3
   463.9
   426.3
   925.1
   719.5
   725.9
   805.7
   887.6
   943.0
   863.2
   910.0
   777.7
   827.7
   860.4
   546.9
   594.1
   678.9
   833.5
   884.8
   864.5
   869.7
   862.3
   887.5
   921.5
   877.3
   943.3
   895.4
   925.7
   703.8
   865.6
   284.5
   929.7
   854.3
   910.9
   575.4
   608.4
  1069.0
   993.2
   851.7
   919.8
   905.1
   975.2
   830.4
  1018.9