# vtk DataFile Version 3.0
Landscape
ASCII
DATASET UNSTRUCTURED_GRID
POINTS       2565 float
           0.000           0.000           0.000
        1600.000           0.000           0.000
        3200.000           0.000           0.000
        4800.000           0.000           0.000
        6400.000           0.000           0.000
        8000.000           0.000           0.000
        9600.000           0.000           0.000
       11200.000           0.000           0.000
       12800.000           0.000           0.000
       14400.001           0.000           0.000
       16000.000           0.000           0.000
       17600.000           0.000           0.000
       19200.000           0.000           0.000
       20799.999           0.000           0.000
       22400.000           0.000           0.000
       24000.001           0.000           0.000
       25599.999           0.000           0.000
       27200.000           0.000           0.000
       28800.001           0.000           0.000
       30400.000           0.000           0.000
       32000.000           0.000           0.000
       33599.999           0.000           0.000
       35200.000           0.000           0.000
       36800.001           0.000           0.000
       38399.999           0.000           0.000
       40000.000           0.000           0.000
       41599.998           0.000           0.000
       43200.002           0.000           0.000
       44800.000           0.000           0.000
       46399.999           0.000           0.000
       48000.002           0.000           0.000
       49600.000           0.000           0.000
       51199.999           0.000           0.000
       52800.002           0.000           0.000
       54400.001           0.000           0.000
       55999.999           0.000           0.000
       57600.002           0.000           0.000
       59200.001           0.000           0.000
       60799.999           0.000           0.000
       62399.998           0.000           0.000
       64000.001           0.000           0.000
       65599.999           0.000           0.000
       67199.998           0.000           0.000
       68800.001           0.000           0.000
       70400.000           0.000           0.000
       71999.998           0.000           0.000
       73600.001           0.000           0.000
       75200.000           0.000           0.000
       76799.998           0.000           0.000
       78400.002           0.000           0.000
       80000.000           0.000           0.000
           0.000        1600.000           0.000
        1820.535        1836.129         201.097
        4436.497        1560.645         273.543
        8231.839        1585.959         210.869
       11192.297        1979.624         147.992
       14535.388        1860.001          62.348
       17224.315        1919.917         416.125
       20899.237        1802.853         348.820
       23731.335        1792.943         283.377
       27507.238        1603.221         237.392
       30065.602        1613.570         271.038
       33371.579        1994.991          25.164
       37099.539        1414.823         234.168
       38196.713        1837.356         101.105
       43418.644        1867.336          48.963
       49975.028        1831.460         199.935
       52954.322        1538.422         139.213
       55816.240        1531.934         180.835
       59004.449        1641.677          31.590
       60471.826        1510.939         331.851
       63784.513        1656.536         223.293
       67301.210        1771.228         160.733
       70381.695        1920.216         341.625
       72217.113        1448.806          86.467
       75069.462        1621.662         158.071
       78696.327        1722.356         253.861
       80000.000        1600.000           0.000
           0.000        3200.000           0.000
        5160.666        3300.186         189.753
        6043.012        3262.445         120.292
        9502.865        3552.908         327.817
       11056.006        2840.019         218.142
       14606.628        2840.755          89.389
       17562.634        3511.308         202.106
       18833.142        3539.080          59.565
       22026.411        2868.051         282.081
       25600.029        2863.835         101.114
       27192.156        3106.980         311.151
       30375.600        2888.881         267.450
       33224.678        2857.386          34.513
       36841.038        3085.085         178.221
       40238.304        3524.647          56.576
       43557.179        3128.631          76.187
       46228.872        2830.415         150.766
       48146.017        3166.706         472.054
       51153.215        2952.745          39.370
       53124.514        2981.904         254.776
       56001.007        3429.944         484.020
       59307.581        3225.477          55.409
       62124.444        3154.870         414.607
       64132.610        2904.590          92.697
       67439.924        3451.420         537.574
       68998.763        3472.006         154.324
       72219.436        2879.026         143.230
       75532.535        3132.944         341.390
       78652.387        3551.841         175.559
       80000.000        3200.000           0.000
           0.000        4800.000           0.000
        1400.060        4439.660         180.839
        4786.648        4655.285         349.125
       11454.778        4403.585         391.343
       14098.429        4923.032         155.067
       17912.789        5043.475         116.270
       20446.875        4859.061         102.414
       24108.597        4895.159         387.613
       27234.832        4431.193         272.551
       28696.423        4449.033         571.748
       32196.694        4589.490          56.484
       33867.228        4797.771         455.938
       34933.129        4760.558         565.893
       38067.139        5053.208         503.311
       41605.852        4581.133         296.493
       44854.687        5021.321         516.863
       48175.269        4416.823         413.949
       51163.202        5122.950          69.262
       54186.876        4703.411         545.682
       56317.818        4828.699         345.868
       59169.326        5108.954          84.245
       62536.999        4516.819         159.906
       65848.099        4445.450         419.600
       68694.276        4766.024         219.159
       71946.222        4752.098         239.874
       75433.121        5067.460         608.609
       78033.243        4664.320         187.573
       80000.000        4800.000           0.000
           0.000        6400.000           0.000
        2841.623        6773.290         237.796
        6245.685        6376.243         472.337
        7744.385        6030.238         303.242
       11368.686        6592.994         337.212
       14270.010        6704.916         318.905
       17330.427        6370.488         166.961
       19571.144        6573.041         427.067
       23763.572        6012.529         485.916
       27463.089        6427.221         515.656
       30273.002        6504.167         221.045
       33884.178        6077.220         225.834
       35390.886        6255.305         351.007
       38075.664        6205.118         475.256
       40048.604        6389.405         105.231
       43255.311        6307.072         161.556
       46126.564        6231.346         447.726
       48285.057        6596.744         303.107
       51294.080        6157.575          84.342
       54250.249        6543.358         554.430
       57921.865        6224.397         180.184
       59558.312        6004.572          99.907
       62425.662        6132.109         211.283
       65724.696        6341.122         709.181
       68956.079        6674.843         521.671
       72380.520        6490.972         439.917
       75318.037        6459.550         503.277
       78160.955        6114.578         252.267
       80000.000        6400.000           0.000
           0.000        8000.000           0.000
        3576.129        8217.635         280.610
        5061.593        7652.754         448.453
        8105.944        7856.844         476.559
       11121.498        7830.817         482.250
       14531.786        8256.985         540.713
       16036.950        7761.051         378.329
       19087.239        8020.414         542.467
       22626.171        7850.784         330.438
       25653.785        8135.625         443.549
       28733.316        8014.857         303.784
       30647.917        7622.140          96.636
       31669.813        8123.016         289.386
       35544.551        8083.612         461.881
       38771.621        7743.567         139.352
       41941.639        8315.419         443.181
       44649.095        8053.831         331.219
       48005.993        8300.872         525.051
       51584.272        8303.210         300.507
       52951.115        7723.006         315.963
       55834.828        8389.314         435.076
       58839.904        7674.993         129.680
       60484.772        8202.290         430.246
       63784.723        8145.830         297.957
       67326.420        8175.747         669.131
       68571.734        8073.207         648.779
       72193.925        8373.058         766.061
       73714.578        7878.720         442.404
       77044.523        8185.581         159.453
       78448.742        7636.455          87.422
       80000.000        8000.000           0.000
           0.000        9600.000           0.000
        3060.393        9702.503         102.649
        6737.398        9989.628         231.175
        9830.599        9930.901         429.144
       13186.894        9245.149         364.702
       15857.041        9479.674         617.082
[...]
POINT_DATA       2565
SCALARS height float 1
LOOKUP_TABLE default
     0.0
     0.0
     0.0
     0.0
     0.0
     0.0
     0.0
     0.0
     0.0
     0.0
     0.0
     0.0
     0.0
     0.0
     0.0
     0.0
     0.0
     0.0
     0.0
     0.0
     0.0
     0.0
     0.0
     0.0
     0.0
     0.0
     0.0
     0.0
     0.0
     0.0
     0.0
     0.0
     0.0
     0.0
     0.0
     0.0
     0.0
     0.0
     0.0
     0.0
     0.0
     0.0
     0.0
     0.0
     0.0
     0.0
     0.0
     0.0
     0.0
     0.0
     0.0
     0.0
   201.1
   273.5
   210.9
   148.0
    62.3
   416.1
   348.8
   283.4
   237.4
   271.0
    25.2
   234.2
   101.1
    49.0
   199.9
   139.2
   180.8
    31.6
   331.9
   223.3
   160.7
   341.6
    86.5
   158.1
   253.9
     0.0
     0.0
   189.8
   120.3
   327.8
   218.1
    89.4
   202.1
    59.6
   282.1
   101.1
   311.2
   267.4
    34.5
   178.2
    56.6
    76.2
   150.8
   472.1
    39.4
   254.8
   484.0
    55.4
   414.6
    92.7
   537.6
   154.3
   143.2
   341.4
   175.6
     0.0
     0.0
   180.8
   349.1
   391.3
   155.1
   116.3
   102.4
   387.6
   272.6
   571.7
    56.5
   455.9
   565.9
   503.3
   296.5
   516.9
   413.9
    69.3
   545.7
   345.9
    84.2
   159.9
   419.6
   219.2
   239.9
   608.6
   187.6
     0.0
     0.0
   237.8
   472.3
   303.2
   337.2
   318.9
   167.0
   427.1
   485.9
   515.7
   221.0
   225.8
   351.0
   475.3
   105.2
   161.6
   447.7
   303.1
    84.3
   554.4
   180.2
    99.9
   211.3
   709.2
   521.7
   439.9
   503.3
   252.3
     0.0
     0.0
   280.6
   448.5
   476.6
   482.2
   540.7
   378.3
   542.5
   330.4
   443.5
   303.8
    96.6
   289.4
   461.9
   139.4
   443.2
   331.2
   525.1
   300.5
   316.0
   435.1
   129.7
   430.2
   298.0
   669.1
   648.8
   766.1
   442.4
   159.5
    87.4
     0.0
     0.0
   102.6
   231.2
   429.1
   364.7
   617.1
   338.0
   286.7
   670.8
   679.1
   313.7
   116.2
   710.2
   425.6
   173.5
   571.3
   484.0
   559.9
   602.7
   142.8
   360.2
   773.8
   273.6
   716.1
   556.3
   579.2
   910.4
   798.2
   423.8
   257.7
     0.0
     0.0
   433.4
   429.1
   421.9
   694.0
   549.2
   533.9
   267.6
   496.4
   544.6
   135.9
   664.3
   599.6
   308.5
   352.9
   459.2
   524.2
   595.9
   262.1
   821.6
   658.4
   448.7
   193.6
   386.9
   551.8
   804.7
   450.3
   614.7
   356.9
   428.8
   236.9
     0.0
     0.0
   617.3
   654.8
   498.5
   749.1
   781.6
   742.4
   557.0
   669.3
   466.0
   835.8
   278.4
   202.5
   170.4
   356.0
   537.9
   268.8
   573.4
   349.2
   515.1
   436.6
   210.1
   777.5
   251.8
   234.8
   373.7
   737.5
   960.4
   355.4
   297.0
   179.1
   127.3
    80.4
     0.0
     0.0
   159.7
   332.9
   260.7
   368.8
   423.4
   537.0
   883.7
   412.1
   917.5
   322.8
   458.1
   208.5
   858.1
   680.3
   311.1
   718.9
   429.4
   729.2
   581.7
   582.4
   365.0
   266.3
   763.2
   694.4
   557.4
   533.5
   378.1
   363.9
     0.0
     0.0
    78.6
   152.8
   239.8
   391.6
   808.4
   709.7
   572.1
   934.7
   559.0
   475.7
   547.9
   239.5
   515.4
   696.9
   699.2
   579.8
   906.7
   317.6
   740.1
   648.3
   321.1
   432.1
   894.9
   722.9
   679.7
   618.5
   617.5
   234.2
   335.9
     0.0
     0.0
   379.1
   436.4
   589.7
   774.9
   831.0
   644.6
   961.2
   936.1
   943.7
   364.2
   494.9
   276.8
   367.9
   712.1
   397.9
   753.7
   840.6
   502.2
   335.5
   630.8
   486.8
   373.2
   818.6
   422.6
   294.8
   417.5
   365.0
    56.6
     0.0
     0.0
   369.4
   253.8
   280.3
   574.2
   460.3
   545.3
   568.9
  1160.1
   496.6
   649.4
   428.3
   318.6
   717.8
   590.8
   506.5
  1112.6
   864.8
   527.2
   742.2
   713.4
   555.1
   491.1
   981.2
   495.1
   727.6
   219.4
   133.4
   369.8
     0.0
     0.0
    49.9
    95.9
   173.4
   205.4
   224.8
   305.0
   439.0
  1032.6
   762.9
   986.3
   783.2
   718.2
   782.6
   905.0
   899.5
  1227.1
   872.2
   498.9
   944.2
  1058.5
   843.1
   677.1
   989.9
   624.1
   327.4
   615.7
   332.5
   402.7
   261.2
     0.0
     0.0
   302.9
   232.5
   303.5
   305.1
   456.0
   420.7
   828.6
  1110.8
  1270.5
  1320.7
  1153.9
   507.6
   601.1
  1119.7
   756.4
  1320.9
  1221.3
   786.4
  1098.0
  1230.8
   960.1
  1238.5
   548.2
   763.3
   688.6
   798.8
   607.3
   402.0
   124.4
     0.0
     0.0
   319.1
   690.5
   608.0
   691.0
  1014.2
  1410.2
  1439.2
  1582.4
  1305.8
   798.7
  1034.0
  1158.3
  1423.8
  1603.6
  1173.9
  1052.9
  1460.9
  1629.0
  1166.9
  1040.9
  1174.8
  1009.7
   808.7
   714.4
   460.9
   315.6
   251.9
     0.0
     0.0
   140.4
   313.2
   514.7
   781.6
   524.0
   532.1
   760.3
  1145.0
  1165.6
  1393.5
  1690.1
  1474.2
  1169.0
  1357.4
  1553.5
  1775.1
  1817.4
  1663.4
  1466.3
  1521.6
  1415.0
  1033.6
   633.9
   784.9
   557.5
   386.5
   255.7
   170.8
   129.3
    72.8
     0.0
     0.0
   234.7
   347.7
   342.2
   287.8
   384.1
   427.7
   484.3
   669.9
   657.1
   831.5
  1439.8
  1633.9
  1484.2
  1513.5
  1823.1
  1976.3
  1906.3
  1774.3
  1884.9
  1628.5
   784.7
   402.7
   683.3
   694.5
   690.6
   422.6
   308.9
   362.8
     0.0
     0.0
   368.9
   434.8
   105.3
   150.7
   201.0
   244.1
   317.5
   434.5
   558.6
  1227.6
  1735.3
  1727.5
  1717.6
  1863.4
  2000.3
  2000.2
  1867.5
  1535.2
   963.5
   512.9
   307.6
   479.3
   506.4
   369.4
   238.5
   534.1
   182.1
     0.0
     0.0
   222.7
    58.8
   491.3
   252.9
   589.7
   574.8
   324.6
   411.5
   614.4
  1072.0
  1659.7
  1895.7
  1752.9
  2000.3
  2000.3
  2000.3
  2000.4
  1733.4
  1438.5
  1115.2
  1072.1
   921.7
   235.1
   217.8
   165.4
   124.7
    77.0
   286.9
   384.7
     0.0
     0.0
    38.5
    82.5
   150.2
   202.0
   457.3
   813.7
   538.3
   626.3
   896.2
  1324.4
  1696.8
  1906.9
  2000.5
  2000.5
  2000.3
  2000.3
  2000.3
  2000.4
  1880.7
  1726.3
  1045.4
   701.5
   715.0
   284.0
   556.3
   338.0
   550.7
    55.7
   278.9
     0.0
     0.0
   247.8
   332.1
   331.9
   332.4
   439.9
   703.0
   959.2
  1239.8
  1547.7
  1694.5
  1911.1
  2000.5
  2000.3
  2000.3
  2000.4
  2000.4
  2000.4
  2000.4
  1742.4
  1202.2
   477.8
   329.3
   753.1
   760.2
   616.0
   498.5
   100.9
    19.9
     0.0
     0.0
   221.6
   381.5
   345.7
   640.7
   557.2
   964.9
  1074.2
  1195.8
  1345.5
  1511.5
  1901.4
  2000.5
  2000.3
  2000.4
  2000.4
  2000.4
  2000.4
  1838.7
  1413.9
  1096.7
   930.0
   548.0
   898.7
   474.2
   317.2
   266.0
   140.7
   281.8
   367.8
     0.0
     0.0
   209.7
   247.0
   324.1
   349.3
   277.8
   444.7
   717.0
   710.5
  1316.9
  1169.1
  1742.8
  2000.5
  2000.3
  2000.4
  2000.4
  2000.3
  1966.0
  1837.7
  1407.7
   995.3
   924.1
   764.3
   599.0
   503.6
   384.5
   426.4
   580.2
   132.3
     0.0
     0.0
    32.3
    62.3
    91.8
   111.4
   184.5
   275.9
   426.0
   953.4
   554.6
  1295.1
  1842.7
  2000.3
  2000.4
  2000.2
  2000.3
  1994.7
  1930.7
  1618.9
  1356.6
   705.9
   709.0
   800.0
   492.9
   543.2
   316.7
     0.0
     0.0
   231.5
   237.3
   247.1
   512.0
   161.5
   546.5
   417.5
   803.1
   458.5
   829.9
  1172.2
  1471.9
  1879.8
  2000.4
  2000.4
  2000.4
  2000.4
  2000.2
  1994.7
  1563.9
  1263.2
  1190.8
   843.4
   404.2
   404.7
   366.3
   290.6
   343.5
   440.5
   146.5
     0.0
     0.0
   562.5
   452.7
   358.8
   426.0
   330.6
   208.4
   231.0
   258.4
   319.4
   350.3
  1019.4
  1112.4
  1938.2
  2000.4
  2000.4
  2000.4
  2000.2
  2000.2
  1691.1
   943.1
   543.6
   649.7
   586.0
   226.8
   191.4
   148.5
   118.6
   397.8
   211.8
     0.0
     0.0
   272.2
   228.0
   183.2
   496.9
   742.5
   527.9
   294.9
   465.0
   323.0
   775.9
   504.1
  1143.4
  1841.8
  2000.4
  2000.4
  2000.3
  2000.3
  2000.3
  1888.5
  1438.8
   601.8
   509.2
   350.2
   273.9
   573.4
   510.6
   464.5
    71.4
   172.0
     0.0
     0.0
    86.8
   361.3
   332.7
   472.8
   646.6
   850.3
   708.4
   839.6
  1062.8
   867.5
   943.9
  1321.6
  1496.0
  1955.4
  2000.4
  2000.3
  2000.3
  2000.4
  1420.6
   772.5
   992.7
  1027.0
   918.9
   467.6
   370.6
   247.9
   182.6
    87.5
    56.2
    32.9
     0.0
     0.0
    69.9
   235.5
   664.3
   751.4
   610.6
   487.4
   701.7
  1004.3
   580.3
  1240.3
  1531.6
  1652.9
  1972.0
  2000.4
  2000.4
  2000.3
  2000.3
  2000.3
  2000.3
  1603.3
  1274.3
  1051.9
   700.9
   631.5
   508.7
   306.9
   246.5
   502.1
   217.7
   225.6
     0.0
     0.0
   206.6
   480.9
   359.5
   339.1
   326.9
   500.0
  1019.9
   865.1
  1557.8
  1846.4
  1773.2
  1934.3
  2000.3
  2000.3
  2000.3
  1975.9
  1841.7
  1746.0
  1298.0
  1091.4
   834.6
   695.4
   737.5
   414.8
   575.2
   298.7
     0.0
     0.0
   206.8
   499.4
   207.6
   216.8
   575.3
   725.9
   649.5
   955.5
  1402.0
  1725.8
  1960.0
  2000.2
  2000.2
  2000.3
  2000.3
  2000.3
  1968.1
  1915.3
  1864.8
  1909.1
  1489.5
   782.1
   430.8
   633.7
   489.9
   474.0
   250.4
   384.0
     0.0
     0.0
   148.5
   353.8
   233.1
   124.5
   170.0
   483.5
   387.7
   759.2
   528.1
  1071.1
  1619.6
  1743.9
  1870.7
  1861.7
  2000.3
  1972.6
  1852.2
  1835.2
  1581.8
  1912.2
  1380.5
   929.6
   819.4
   305.7
   225.8
   158.4
   103.7
    50.7
     0.0
     0.0
    26.2
    62.2
    79.9
   408.9
   210.3
   270.6
   315.2
   415.6
   741.1
  1411.2
  1265.2
  1403.8
  1714.4
  1788.2
  1949.7
  1809.7
  1604.5
  1371.3
  1506.8
  1644.6
   603.9
   495.3
   699.8
   571.8
   423.0
   552.9
   470.8
   488.3
     0.0
     0.0
   404.0
   192.1
   240.2
   628.3
   324.2
   456.8
   332.6
   684.3
   825.0
   829.0
  1288.7
   817.2
  1512.6
  1323.9
  1605.5
  1575.3
  1206.2
  1208.0
  1068.7
  1689.1
  1177.3
   964.8
   936.0
   564.9
   460.2
   282.2
   461.0
   110.7
    57.1
     0.0
     0.0
   416.4
   549.6
   419.7
   788.4
   461.8
   565.3
   461.1
   929.0
   506.2
   805.8
   574.9
  1478.4
   917.3
   963.3
  1155.1
  1598.9
  1415.4
  1010.1
   940.3
  1286.4
  1439.3
  1111.9
  1101.7
   983.0
   937.5
   588.4
   333.5
   167.8
   410.5
     0.0
     0.0
    72.6
   365.7
   404.0
   509.9
   596.7
   840.3
   934.5
   781.8
   857.0
   425.8
   447.5
  1142.4
  1313.6
   694.0
  1189.6
  1423.9
   777.1
   544.0
  1387.7
  1492.0
   715.0
   860.6
   531.7
   529.5
   684.1
   271.7
   277.0
     0.0
     0.0
    98.9
   169.3
   256.7
   371.0
   435.2
   684.3
   519.4
   323.4
   795.7
  1205.2
   917.8
   416.9
   931.3
  1085.9
  1057.0
   652.1
   369.5
   945.3
  1049.3
  1307.9
   873.4
   439.4
   361.5
   283.8
   526.5
   404.6
   349.9
   279.1
     0.0
     0.0
   212.6
   441.6
   440.4
   376.0
   693.4
   506.0
   754.1
  1004.6
   906.0
   627.3
   582.8
   797.6
  1159.1
   821.5
   342.1
   594.4
  1270.7
   544.4
   578.8
   637.5
  1118.8
  1192.2
   615.8
   503.3
   579.8
   205.9
   167.8
   110.4
   186.4
   429.4
     0.0
     0.0
   107.5
   474.3
   589.4
   730.8
   816.8
   897.4
   581.3
   718.4
   259.2
   389.8
   948.2
   443.0
   663.2
   722.9
   976.8
   686.5
   668.0
   415.1
   497.3
   775.7
  1023.3
   880.1
   841.3
   596.9
   546.8
   457.5
    57.8
    32.2
     0.0
     0.0
    54.1
   446.8
   191.7
   321.7
   498.3
   629.3
   514.3
   738.5
   421.6
   409.2
   226.9
   468.6
   708.7
   264.7
   689.1
   538.2
   905.7
   350.4
   425.4
   378.0
   794.5
  1144.8
  1136.0
   812.6
   525.6
   333.9
   208.6
   162.0
   126.0
   306.2
     0.0
     0.0
   205.5
   427.1
   504.4
   491.9
   584.8
   498.3
   458.8
   357.1
   532.5
   299.2
   498.5
   482.9
   218.8
   295.2
   523.5
   192.6
   538.5
   316.5
   763.1
   907.9
   569.4
   807.8
   546.6
   564.7
   260.0
   407.9
   181.8
     0.0
     0.0
   281.3
   346.8
   313.8
   864.9
   868.1
   741.3
   629.7
   457.3
   270.2
   469.6
   175.9
   533.9
   883.7
   312.4
   219.0
   485.7
   749.1
   296.8
   534.5
   281.1
   679.8
   936.9
   746.2
   679.6
   915.3
   836.0
   799.2
   379.6
   397.4
   154.8
     0.0
     0.0
    95.2
   481.4
   526.6
   585.2
   659.3
   480.7
   564.9
   349.2
   585.1
   154.0
   377.5
   808.6
   336.8
   436.2
   709.3
   667.1
   608.3
   324.7
   486.4
   228.9
   647.7
   610.6
   780.4
   342.9
   584.6
   701.3
   365.3
     0.0
     0.0
   211.2
   171.7
   313.2
   513.1
   666.6
   246.3
   329.4
   616.8
   187.9
   120.8
   271.3
   454.6
   137.3
   437.6
   263.3
   481.5
   263.2
   171.8
   488.5
   325.4
   788.0
   536.5
   462.9
   362.7
   490.2
   418.1
   180.1
   256.2
     0.0
     0.0
   500.1
   248.6
   579.3
   321.5
   669.9
   186.7
   420.0
   125.6
   395.3
   693.2
   426.0
   112.0
   152.6
   664.6
   529.3
    87.6
   215.3
   414.6
   272.3
   484.3
   495.9
   629.6
   275.4
   844.2
   796.7
   435.9
    99.1
     0.0
     0.0
   170.7
   480.4
   305.8
   257.4
   324.4
   245.7
   534.3
   345.8
    80.8
   370.5
   668.0
   495.0
   268.0
    85.6
   582.9
   446.2
   295.9
    97.3
   264.8
   197.1
   305.6
   169.6
   306.4
   214.4
   492.2
   365.8
   446.6
   240.8
     0.0
     0.0
   246.3
   434.5
   413.4
   275.6
   129.1
   366.5
   303.9
   145.3
   511.8
    56.4
   166.7
   456.2
   476.6
   265.4
    62.4
   272.0
   536.5
   197.3
    50.6
   350.5
   137.2
   442.2
   125.1
   570.1
   136.6
   734.0
   275.6
   352.9
   273.1
     0.0
     0.0
   345.1
   176.8
   465.7
    75.5
   376.3
   346.3
   464.9
    56.8
   318.1
   208.6
    38.5
   158.4
   256.9
   350.5
   396.5
   319.8
    43.6
   486.0
   120.5
   291.3
    29.3
   526.6
   395.8
    81.4
   165.8
   342.3
    77.4
   417.5
   284.5
   120.7
   232.0
   327.2
     0.0
     0.0
   378.6
   252.6
   193.6
   293.5
   190.8
   307.0
   175.5
   293.3
    27.5
   296.1
   154.6
   154.9
    27.7
   295.0
    77.8
   302.2
   230.4
   117.6
    50.9
    93.0
    58.9
   230.9
   151.6
   124.6
   330.4
   366.9
   177.1
     0.0
     0.0
     0.0
     0.0
     0.0
     0.0
     0.0
     0.0
     0.0
     0.0
     0.0
     0.0
     0.0
     0.0
     0.0
     0.0
     0.0
     0.0
     0.0
     0.0
     0.0
     0.0
     0.0
     0.0
     0.0
     0.0
     0.0
     0.0
     0.0
     0.0
     0.0
     0.0
     0.0
     0.0
     0.0
     0.0
     0.0
     0.0
     0.0
     0.0
     0.0
     0.0
     0.0
     0.0
     0.0
     0.0
     0.0
     0.0
     0.0
     0.0
     0.0
     0.0
   105.6
   396.8
   214.3
   677.6
   256.4
   368.1
   199.5
   357.1
   735.3
   930.0
   497.1
  1532.0
  1791.9
   349.3
    74.7
   445.5
   259.6
  1004.2
  2000.4
  1011.7
  1261.9
   585.3
  1778.8
   573.7
  1886.7
  1500.8
  1169.8
   462.1
   928.5
   312.9
   599.3
   655.9
   412.3
   593.5
   409.0
   293.4
    61.3
   303.5
    11.5
    48.1
    35.9
    80.4
    42.5
    57.6
    29.4
   123.9
    50.5
    26.1
    74.3
   161.2
    19.1
   173.6
    85.2
    95.6
   130.2
    50.4
   174.5
   110.9
   175.7
    38.0
   155.6
    38.4
   141.2
    25.8
   175.4
   175.9
    23.1
   123.5
    72.4
    33.5
   101.2
   142.5
   322.6
   157.1
    20.4
   105.3
   351.4
    16.5
   102.6
   187.0
   110.8
    88.5
    43.1
    16.1
    97.7
   129.4
   184.3
    24.5
   208.1
   133.0
   180.7
   186.6
    34.4
   130.1
   127.2
    91.8
    88.4
   125.7
    43.8
   111.4
   211.2
    45.6
    76.0
   129.3
   113.3
   146.3
    87.6
    38.0
    27.3
    73.1
   146.2
    15.3
    39.4
    56.9
   143.5
   148.6
    95.1
    82.8
    73.7
    13.9
   127.5
    74.1
    75.9
    13.9
   155.4
    32.1
   156.2
   293.3
   158.3
   151.3
   137.6
   129.4
    28.6
   218.3
    27.0
   584.4
   412.3
   111.5
   479.6
   215.8
   702.4
   546.8
   378.7
   474.0
  1000.9
   841.0
   615.0
   692.3
   960.6
  1068.9
   473.0
   476.3
   709.2
   489.5
  1035.7
   371.7
  2000.4
  1207.1
   642.5
  2000.2
  1126.5
  1408.0
  2000.4
   720.4
   721.9
  1156.3
   759.4
  1972.1
  1786.6
   836.6
   305.0
   207.2
  1068.6
   728.9
  1065.5
   384.4
   918.7
   739.3
   763.6
   461.8
   796.1
   381.9
   611.3
   740.0
   479.9
   906.4
   314.1
   371.4
   391.6
   453.3
   379.5
   405.3
   551.8
   450.6
   642.5
   193.7
   705.6
   599.9
   778.0
   578.3
   294.7
   464.9
   218.4
   626.4
   685.1
   832.0
   535.4
   522.4
   292.4
   916.1
  1126.7
   721.7
  2000.2
  2000.4
  1747.4
   374.7
   510.2
  1145.5
   943.3
   396.4
  1061.3
   636.4
   587.4
   321.7
   391.8
   525.2
   506.0
   356.8
    77.2
  2000.4
   185.8
   152.2
   196.7
   141.7
    79.7
   159.4
   342.2
   674.8
  2000.3
   136.9
   185.3
   192.3
    96.9
   147.8
    42.9
   180.1
   141.0
    89.9
   276.7
   184.8
   502.4
   105.3
   443.2
    38.5
    61.1
   296.7
   155.8
    81.0
   272.2
   436.6
   136.4
   131.4
   295.7
   249.7
   190.2
   163.9
   332.2
   274.4
   514.9
    72.2
   244.7
   397.4
   274.1
   444.1
   234.3
   221.5
   289.7
   471.8
   115.9
   207.5
    46.7
   132.7
   360.7
   315.0
   180.2
   205.5
   208.9
   132.6
   241.5
    90.0
    78.6
   116.7
   424.0
   132.5
    76.2
   552.4
    82.5
   188.3
   181.5
   322.7
   133.9
   485.9
   135.9
   276.8
   148.8
   518.2
   175.0
   187.2
   105.6
   387.4
   283.2
   120.1
   506.5
   350.0
   179.4
   463.8
   517.6
   374.6
   215.9
    99.0
   243.0
   254.7
   289.6
   497.4
    90.2
   318.8
    67.6
   315.7
   161.2
    73.8
   120.9
   182.9
   330.6
    93.1
   211.6
   584.2
    73.2
   330.8
   155.2
   101.3
   242.9
   154.1
   150.1
   234.4
   348.0
    90.6
   168.8
    76.2
   242.7
   586.9
   244.5
   116.6
    85.2
   175.8
   389.5
   118.2
   194.8
   425.3
   559.9
   443.8
   453.5
   194.1
   234.5
   533.0
   256.5
   483.4
   458.5
   329.7
   148.9
   246.6
   173.0
   162.8
   230.9
   286.1
   193.8
   156.6
   193.8
   132.5
    84.9
   255.8
   173.2
   290.9
   176.2
   605.0
   193.7
   145.7
   275.7
   611.3
   256.6
   136.4
   299.2
   146.4
    90.9
   184.9
   311.4
   324.0
   149.7
   310.1
   209.1
   442.5
   395.5
   416.0
   246.8
   413.9
   134.4
   508.9
   306.4
   380.0
   580.7
   513.3
   145.8
   130.0
   246.8
   301.0
   236.2
   320.5
   210.3
   335.6
   415.9
   262.0
   344.4
   193.3
   122.0
   190.2
   241.8
   715.5
   290.0
   267.7
   436.9
   468.8
   107.5
   406.8
   171.9
   272.1
   226.9
   493.2
   201.9
   377.0
   170.1
   388.1
   510.9
   365.5
   373.9
   600.6
   524.0
   182.1
   339.6
   408.5
   281.0
   532.7
   316.0
   376.2
   209.0
   317.7
   266.3
   129.9
   429.4
   201.9
   323.5
   228.4
   402.9
   495.0
   491.0
   344.9
   230.2
   193.9
   363.9
   431.3
   715.8
   598.9
   643.0
   268.1
   170.9
   652.9
   606.2
   190.2
   502.6
   307.4
   407.6
   227.9
   222.4
   434.5
   331.9
   464.6
   387.8
   128.1
   338.6
   466.0
   168.4
   146.0
   107.1
   296.8
   361.2
   314.2
   493.9
   701.8
   147.1
   419.3
   508.3
   508.8
   669.6
   571.3
   590.3
   497.8
   175.6
   549.3
   192.7
   627.8
   396.8
   395.5
   239.4
   804.1
   263.0
   317.8
   449.2
   673.4
   403.8
   556.1
   263.4
   436.1
   414.7
   415.5
   445.1
   720.4
   609.4
   212.5
   512.4
   233.4
   299.0
   499.1
   174.5
   350.9
   607.4
   170.8
   281.0
   145.0
   155.6
   182.6
   538.1
   304.4
   436.6
   408.6
   625.5
   596.9
   369.7
   620.4
   311.4
   391.9
   241.6
   268.7
   332.9
   391.2
   444.8
   651.8
   313.4
   348.5
   795.5
   356.5
   426.6
   168.7
   396.5
   575.2
   229.4
   206.7
   369.1
   280.3
   461.2
   361.9
   269.5
   380.7
   240.0
   320.5
   418.4
   638.8
   385.7
   549.2
   435.9
   570.1
   258.2
   523.9
   189.1
   540.5
   345.5
   507.8
   403.1
   183.6
   365.3
   663.6
   221.0
   343.5
   421.5
   824.0
   345.1
   431.2
   546.5
   377.0
   534.1
   668.9
   673.7
   574.2
   378.0
   550.4
   414.8
   330.6
   463.5
   305.2
   400.0
   378.9
   516.4
   261.0
   775.4
   732.5
   697.8
   441.2
   472.3
   398.8
   195.9
   333.0
   463.1
   527.7
   225.0
   611.1
   488.4