# vtk DataFile Version 3.0
Landscape
ASCII
DATASET UNSTRUCTURED_GRID
POINTS      25364 float
           0.000           0.000           0.000
        1600.000           0.000           0.000
           0.000        1600.000           0.000
         533.333         533.333           0.000
        1820.535        1836.129         177.353
        1600.000           0.000           0.000
        3200.000           0.000           0.000
        2206.845         612.043         367.395
        1764.552        1370.031         367.395
        4436.497        1560.645         231.539
        3200.000           0.000           0.000
        4800.000           0.000           0.000
        4145.499         520.215         357.837
        4505.262        1265.414         357.837
        6234.052        1737.813          61.462
        4800.000           0.000           0.000
        6400.000           0.000           0.000
        5811.350         579.271         368.141
        5687.825        1075.885         368.141
        8231.839        1585.959         200.965
        6400.000           0.000           0.000
        8000.000           0.000           0.000
        8006.829        1233.528         381.528
        7834.579        1242.022         412.379
        8179.078        1225.034         350.678
        8231.839        1585.959         200.965
        8000.000           0.000           0.000
        9600.000           0.000           0.000
        8610.613         528.653         350.678
        8179.078        1225.034         350.678
       10114.256        2299.635         179.902
       10506.534         877.165          58.685
       11192.297        1979.624         139.859
       10604.362        1718.808         385.673
       10603.219        2154.489         385.673
       11192.297        1979.624         139.859
       11200.000           0.000           0.000
       12800.000           0.000           0.000
       11406.848        1431.155         389.416
       11194.520        1408.319         369.106
       11619.176        1453.992         409.726
       14535.388        1860.001          64.180
       12800.000           0.000           0.000
       14400.001           0.000           0.000
       14183.104        1161.719         364.002
       13881.458        1159.114         385.879
       14484.751        1164.323         342.126
       14535.388        1860.001          64.180
       14400.001           0.000           0.000
       16000.000           0.000           0.000
       14978.463         620.000         342.126
       14484.751        1164.323         342.126
       17224.315        1919.917         361.751
       16000.000           0.000           0.000
       17600.000           0.000           0.000
       16941.438         639.972         408.371
       17243.581        1821.460         408.371
       18961.790        1751.968          35.058
       17600.000           0.000           0.000
       19200.000           0.000           0.000
       18587.263         583.989         355.093
       18384.954        1009.858         355.093
        4436.497        1560.645         231.539
        1820.535        1836.129         177.353
        3200.000           0.000           0.000
        3152.344        1132.258         557.575
        3392.111        1670.628         557.575
       23731.335        1792.943         207.954
       22400.000           0.000           0.000
       24000.001           0.000           0.000
       23377.112         597.648         369.984
       23790.242        1399.829         369.984
       25712.931        1511.197          51.114
       24000.001           0.000           0.000
       25599.999           0.000           0.000
       25104.310         503.732         365.918
       25031.375         909.909         365.918
       25712.931        1511.197          51.114
       27200.000           0.000           0.000
       27507.238        1603.221         217.502
       26806.723        1038.139         376.523
       26305.491         909.023         355.868
       27443.215        1269.138         357.733
       27016.685        1578.062         415.718
       27507.238        1603.221         217.502
       27200.000           0.000           0.000
       28800.001           0.000           0.000
       27835.746         534.407         357.733
       27443.215        1269.138         357.733
       30065.602        1613.570         358.943
       28800.001           0.000           0.000
       30400.000           0.000           0.000
       29755.201         537.857         415.712
       29992.173        1519.952         415.712
       31040.554         771.051         223.157
       30065.602        1613.570         358.943
       30400.000           0.000           0.000
       30655.211         995.323         410.847
       30935.397         644.470         294.697
       30375.026        1346.177         526.997
       31415.600        1997.898         133.757
       33371.579        1994.991          47.604
       33224.678        2857.386          66.580
       32108.950        2162.174         416.890
       32108.586        1996.868         409.592
       32109.314        2327.480         424.187
       34548.701        1811.800         253.366
       34459.486        2336.808         183.161
       33371.579        1994.991          47.604
       34126.589        2047.867         331.734
       34519.671        1982.636         331.734
        6234.052        1737.813          61.462
        6043.012        3262.445         124.451
        5160.666        3300.186         257.494
        5812.577        2766.815         371.117
        5427.278        3288.782         371.117
       37099.539        1414.823         346.095
       35200.000           0.000           0.000
       36800.001           0.000           0.000
       36366.513         471.608         434.236
       36940.501        1296.368         434.236
       37099.539        1414.823         346.095
       36800.001           0.000           0.000
       38399.999           0.000           0.000
       37433.180         471.608         406.962
       37185.580        1321.216         406.962
       39191.316         917.871          38.384
       38399.999           0.000           0.000
       40000.000           0.000           0.000
       39197.105         305.957         256.822
       38836.820         506.681         256.822
       40125.312        1643.514          43.561
       41599.998           0.000           0.000
       41840.942        1855.796         336.596
       41188.751        1166.437         391.093
       40733.335         965.883         359.810
       41821.751        1707.984         401.523
       41617.231        1828.116         430.781
       41840.942        1855.796         336.596
       41599.998           0.000           0.000
       43200.002           0.000           0.000
       42213.647         618.599         401.523
       41821.751        1707.984         401.523
       43418.644        1867.336          60.531
       43200.002           0.000           0.000
       44800.000           0.000           0.000
       43806.215         622.445         344.007
       43335.336        1155.832         344.007
       34548.701        1811.800         253.366
       37099.539        1414.823         346.095
       36841.038        3085.085         148.166
       36163.093        2103.903         579.679
       36284.125        1541.723         643.839
       37040.427        1796.770         506.483
       35245.199        2198.672         549.390
       48116.282        1628.322         145.511
       49975.028        1831.460         293.554
       48146.017        3166.706         369.060
       49118.311        2237.324         583.760
       49451.819        1774.279         508.737
       48784.802        2700.369         658.782
       10114.256        2299.635         179.902
        8231.839        1585.959         200.965
       10506.534         877.165          58.685
        8974.362        1652.788         486.623
        9095.272        1913.311         512.644
        8853.451        1392.265         460.601
       52954.322        1538.422         129.418
       52800.002           0.000           0.000
       54400.001           0.000           0.000
       53384.775         512.807         329.777
       52904.795        1044.685         329.777
       55816.240        1531.934         170.647
       54400.001           0.000           0.000
       55999.999           0.000           0.000
       55657.761        1126.628         364.144
       55449.617        1135.361         387.771
       55865.905        1117.895         340.518
       55816.240        1531.934         170.647
       55999.999           0.000           0.000
       57600.002           0.000           0.000
       56472.081         510.645         340.518
       55865.905        1117.895         340.518
       38196.713        1837.356          82.033
       37099.539        1414.823         346.095
       38399.999           0.000           0.000
       37898.751        1084.060         378.392
       38269.491        1179.571         346.244
       37185.580        1321.216         406.962
       37234.343        1466.738         413.631
       59004.449        1641.677          44.633
       57600.002           0.000           0.000
       59200.001           0.000           0.000
       58601.484         547.226         318.202
       59085.611         960.315         318.202
       25712.931        1511.197          51.114
       25600.029        2863.835         103.398
       23731.335        1792.943         207.954
       24301.960        1923.907         454.874
       24324.403        2132.812         479.796
       24279.517        1715.002         429.953
       63784.513        1656.536         274.460
[...]
POINT_DATA      25364
SCALARS height float 1
LOOKUP_TABLE default
     0.0
     0.0
     0.0
     0.0
   177.4
     0.0
     0.0
   367.4
   367.4
   231.5
     0.0
     0.0
   357.8
   357.8
    61.5
     0.0
     0.0
   368.1
   368.1
   201.0
     0.0
     0.0
   381.5
   412.4
   350.7
   201.0
     0.0
     0.0
   350.7
   350.7
   179.9
    58.7
   139.9
   385.7
   385.7
   139.9
     0.0
     0.0
   389.4
   369.1
   409.7
    64.2
     0.0
     0.0
   364.0
   385.9
   342.1
    64.2
     0.0
     0.0
   342.1
   342.1
   361.8
     0.0
     0.0
   408.4
   408.4
    35.1
     0.0
     0.0
   355.1
   355.1
   231.5
   177.4
     0.0
   557.6
   557.6
   208.0
     0.0
     0.0
   370.0
   370.0
    51.1
     0.0
     0.0
   365.9
   365.9
    51.1
     0.0
   217.5
   376.5
   355.9
   357.7
   415.7
   217.5
     0.0
     0.0
   357.7
   357.7
   358.9
     0.0
     0.0
   415.7
   415.7
   223.2
   358.9
     0.0
   410.8
   294.7
   527.0
   133.8
    47.6
    66.6
   416.9
   409.6
   424.2
   253.4
   183.2
    47.6
   331.7
   331.7
    61.5
   124.5
   257.5
   371.1
   371.1
   346.1
     0.0
     0.0
   434.2
   434.2
   346.1
     0.0
     0.0
   407.0
   407.0
    38.4
     0.0
     0.0
   256.8
   256.8
    43.6
     0.0
   336.6
   391.1
   359.8
   401.5
   430.8
   336.6
     0.0
     0.0
   401.5
   401.5
    60.5
     0.0
     0.0
   344.0
   344.0
   253.4
   346.1
   148.2
   579.7
   643.8
   506.5
   549.4
   145.5
   293.6
   369.1
   583.8
   508.7
   658.8
   179.9
   201.0
    58.7
   486.6
   512.6
   460.6
   129.4
     0.0
     0.0
   329.8
   329.8
   170.6
     0.0
     0.0
   364.1
   387.8
   340.5
   170.6
     0.0
     0.0
   340.5
   340.5
    82.0
   346.1
     0.0
   378.4
   346.2
   407.0
   413.6
    44.6
     0.0
     0.0
   318.2
   318.2
    51.1
   103.4
   208.0
   454.9
   479.8
   430.0
   274.5
     0.0
     0.0
   398.4
   416.8
   380.0
    35.8
     0.0
     0.0
   239.1
   239.1
   224.9
    65.4
   127.3
   474.0
   474.0
    64.2
   139.9
     0.0
   437.4
   385.9
   409.7
   492.4
    89.5
     0.0
     0.0
   338.9
   310.8
   366.9
   161.3
     0.0
     0.0
   373.7
   398.5
   348.9
    78.6
   360.4
   161.3
   385.6
   385.6
   305.0
    44.6
     0.0
   362.3
   318.2
   406.4
   148.6
   320.4
   305.0
   580.8
   647.6
   513.9
    35.1
   291.6
    72.9
   466.8
   429.3
   504.4
   121.1
   269.5
   291.6
   508.3
   569.5
   447.0
   361.8
    64.2
     0.0
   507.0
   507.0
    58.7
   201.0
     0.0
   460.6
   460.6
   177.4
     0.0
     0.0
   431.3
   367.4
   495.3
   291.6
     0.0
     0.0
   407.9
   429.6
   386.2
   137.8
     0.0
   121.1
   290.3
   290.3
    34.9
     0.0
     0.0
   349.5
   349.5
    34.9
     0.0
   129.4
   360.9
   357.9
   329.8
   389.9
    61.5
   231.5
     0.0
   385.6
   368.1
   357.8
   427.3
    34.9
   129.4
    74.1
   418.1
   446.3
   389.9
    89.5
     0.0
     0.0
   310.8
   310.8
    92.3
   204.7
   139.9
   525.5
   513.5
   537.5
   170.6
   129.4
     0.0
   454.7
   387.8
   521.5
   358.9
   217.5
     0.0
   515.5
   415.7
   615.2
   373.8
   204.7
    92.3
   552.0
   537.5
   566.4
   305.0
     0.0
     0.0
   374.4
   374.4
   148.6
     0.0
     0.0
   398.6
   398.6
   176.9
   460.6
   103.4
   501.9
   499.5
   504.3
   133.9
   291.6
   269.5
   555.5
   569.2
   569.5
   538.0
   245.2
    92.3
   361.8
   543.5
   532.2
   575.3
   529.4
    35.1
    72.9
   245.2
   442.5
   442.5
   133.8
    21.0
    47.6
   409.6
   409.6
    72.0
   146.7
    96.9
   468.5
   486.9
   450.1
   145.5
   331.2
   293.6
   507.2
   567.1
   508.7
   450.4
   148.2
   346.1
    82.0
   460.1
   413.6
   506.5
    43.6
    38.4
     0.0
   278.2
   278.2
    43.6
    82.0
    38.4
   332.1
   386.1
   278.2
   245.8
   348.3
   217.5
   613.8
   544.3
   603.6
   657.6
    60.5
   336.6
     0.0
   388.3
   344.0
   432.7
   145.5
    72.0
     0.0
   400.8
   326.1
   402.4
   464.5
   282.2
   103.4
   348.3
   520.0
   466.7
   573.3
   127.3
     0.0
     0.0
   378.1
   354.6
   401.6
   100.8
    43.3
   315.7
   415.4
   415.4
   236.9
   129.4
   170.6
   549.2
   521.5
   576.9
    72.0
    96.9
    60.5
   429.4
   408.6
   450.1
    44.6
   170.6
     0.0
   492.1
   492.1
    89.5
   315.7
     0.0
   443.3
   408.4
   478.2
   161.3
    89.5
     0.0
   434.4
   398.5
   366.9
   501.5
   148.6
   305.0
     0.0
   438.5
   398.6
   374.4
   513.9
   145.5
   146.7
    72.0
   475.1
   485.7
   464.5
   216.7
   369.1
   421.2
   574.7
   504.2
   645.1
    74.1
   369.1
   293.6
   534.7
   438.3
   658.8
   537.0
   224.9
    35.8
    65.4
   439.6
   494.8
   372.0
   474.0
    43.3
   127.3
     0.0
   420.0
   401.6
   438.3
   196.5
   201.0
   323.0
   577.2
   562.2
   585.0
   589.1
   246.8
     0.0
     0.0
   411.1
   440.9
   381.4
   246.8
     0.0
     0.0
   491.9
   381.4
   602.4
   148.8
    89.5
   161.3
   522.0
   501.5
   542.4
   360.4
   246.8
   173.8
   586.0
   641.9
   519.2
   621.3
   148.8
   165.3
   315.7
   544.7
   546.5
   534.0
   550.5
     0.0
   246.8
     0.0
   529.1
   602.4
   455.8
    61.5
   257.5
   231.5
   492.4
   557.5
   427.3
   179.9
   204.7
   323.0
   477.1
   543.6
   410.7
   458.7
   177.4
   231.5
   584.0
   557.6
   610.5
     0.0
     0.0
   177.4
   517.0
   495.3
   538.8
   183.2
   177.4
   458.7
   562.8
   537.8
   587.7
   257.5
   458.7
   231.5
   591.9
   557.5
   610.5
   622.8
   509.5
   458.7
   257.5
   709.1
   795.3
   622.8
   347.6
   460.6
   463.9
   704.8
   745.3
   662.9
   713.2
    51.1
   348.3
   103.4
   466.7
   466.7
   509.5
   183.2
   458.7
   664.7
   795.3
   587.7
   645.9
   183.2
     0.0
     0.0
   468.3
   504.5
   432.1
   236.9
    74.1
   129.4
   450.0
   446.3
   453.7
    92.3
   139.9
    64.2
   502.9
   492.4
   513.5
    92.3
    64.2
   361.8
   519.6
   507.0
   532.2
   137.8
   121.1
   291.6
   368.7
   447.0
   290.3
    51.1
   208.0
     0.0
   388.7
   365.9
   370.0
   430.0
   222.4
   463.6
   166.8
   467.0
   513.1
   420.8
    35.1
   245.2
   361.8
   489.5
   428.4
   575.3
   442.5
   146.3
   245.2
    72.9
   473.1
   473.1
   245.8
   217.5
   358.9
   597.2
   615.2
   603.6
   546.6
   133.8
   358.9
   223.2
   472.6
   474.1
   527.0
   425.7
   199.9
   183.2
   148.2
   524.3
   517.5
   531.2
    96.9
   336.6
    60.5
   466.5
   500.4
   432.7
   133.8
   223.2
    21.0
   404.0
   382.3
   425.7
   133.8
   114.7
   245.8
   503.8
   518.7
   488.9
    72.0
    60.5
     0.0
   408.6
   408.6
   140.9
   336.6
    96.9
   518.8
   537.1
   500.4
   183.2
    66.6
    47.6
   375.5
   375.5
   176.9
   282.2
   397.7
   620.1
   562.7
   677.6
   133.9
   146.3
    72.9
   495.6
   495.6
   439.6
    82.0
    98.2
   505.8
   556.1
   455.5
   544.1
   642.6
   348.3
   245.8
   680.2
   725.2
   657.6
   658.7
   492.4
   373.8
   421.1
   756.9
   776.2
   719.2
   786.8
    34.9
    74.1
   293.6
   438.3
   438.3
    35.8
    95.8
   274.5
   418.6
   418.6
   223.0
   170.6
    44.6
   522.0
   574.2
   492.1
   481.3
    79.5
    44.6
   305.0
   442.9
   406.4
   479.4
   495.6
    96.9
   146.7
   535.5
   486.9
   584.1
   100.8
   127.3
    43.3
   440.8
   443.3
   438.3
    95.8
   320.4
   274.5
   530.9
   628.9
   418.6
   492.2
   337.3
   421.2
   444.7
   713.5
   668.1
   756.5
   712.0
   140.8
    74.1
   236.9
   503.9
   453.7
   554.0
   141.3
   199.2
   439.6
   578.7
   605.6
   551.8
   454.6
   236.9
   170.6
   619.8
   576.9
   662.8
   223.0
    44.6
    79.5
   481.3
   481.3
   320.4
    79.5
   305.0
   558.1
   647.6
   479.4
   527.3
   516.5
   140.8
   236.9
   579.1
   554.0
   604.2
   148.8
   315.7
    89.5
   506.1
   478.2
   534.0
   224.9
   322.5
    95.8
   507.7
   511.9
   503.5
   224.9
    95.8
    35.8
   499.1
   503.5
   494.8
   125.9
    79.5
   320.4
   560.9
   527.3
   594.6
   347.6
   269.5
   460.6
   668.1
   648.7
   635.0
   713.2
   329.1
   161.3
   368.6
   649.8
   611.8
   687.9
   100.8
   518.5
   127.3
   493.2
   443.3
   543.1
   166.8
   373.8
    92.3
   575.9
   566.4
   585.4
   360.4
   368.6
   161.3
   660.4
   660.4
     0.0
   246.8
     0.0
   455.8
   455.8
   329.1
   612.0
   652.5
   789.0
   717.7
   860.4
   335.4
   173.8
   189.3
   505.2
   574.5
   435.9
   282.5
   196.5
   328.6
   556.9
   624.4
   489.5
   235.3
   183.2
   509.5
   614.5
   567.6
   645.9
   663.4
   360.4
   173.8
   368.6
   633.3
   625.2
   660.4
   621.3
     0.0
   173.8
   246.8
   470.4
   519.2
   421.6
   373.8
   323.0
   204.7
   605.9
   668.2
   543.6
   183.2
     0.0
   177.4
   529.0
   537.8
   538.8
   504.5
   282.5
   257.5
   124.5
   474.9
   578.7
   371.1
   282.5
   328.6
   508.3
   643.2
   662.0
   624.4
   183.2
   488.9
    66.6
   493.3
   375.5
   611.0
   488.9
   114.7
    66.6
   507.6
   507.6
   133.9
    72.9
   291.6
   536.8
   569.2
   504.4
   687.9
   604.5
   701.3
   933.5
   854.0
   955.8
   997.9
   282.5
   124.5
   196.5
   489.5
   489.5
   314.3
   509.5
   508.3
   741.9
   726.2
   829.1
   662.9
   222.4
   146.3
   463.6
   572.0
   558.8
   585.3
   642.6
   282.2
   348.3
   649.2
   725.2
   573.3
   359.4
   114.7
   156.2
   527.8
   527.8
   187.5
   610.4
   254.5
   659.4
   659.4
   183.2
   549.9
   488.9
   652.2
   734.2
   611.0
   616.0
   439.6
   148.2
    82.0
   556.1
   556.1
   140.9
    98.2
   336.6
   499.8
   510.8
   537.1
   464.9
   359.4
   156.2
   357.2
   649.2
   649.2
   188.4
   495.6
   241.7
   611.3
   591.6
   631.0
   324.7
   322.5
   610.9
   650.1
   617.1
   695.0
   659.7
   360.8
   114.7
   488.9
   585.6
   507.6
   663.5
   288.9
   156.2
   360.8
   623.0
   581.1
   664.8
   417.9
   516.5
   454.6
   760.7
   801.5
   710.9
   771.9
   199.9
   439.6
   330.0
   664.3
   600.9
   727.8
   199.9
   330.0
   549.9
   673.4
   673.4
   314.3
   206.7
   235.3
   562.2
   515.9
   608.5
   421.2
   369.1
    74.1
   573.5
   537.0
   645.1
   556.8
   140.8
   421.2
    74.1
   575.7
   556.8
   594.5
   188.4
   140.9
    96.9
   478.2
   478.2
   516.5
   236.9
   454.6
   732.1
   662.8
   801.5
   223.0
   417.9
   454.6
   651.6
   592.2
   710.9
   268.5
   444.7
   421.2
   696.7
   636.8
   756.5
   330.0
   360.8
   549.9
   666.9
   706.2
   673.4
   632.0
   319.2
   224.4
   146.3
   568.8
   539.0
   598.6
   175.9
   320.4
    95.8
   496.2
   500.1
   492.2
   175.9
   125.9
   320.4
   552.7
   500.1
   594.6
   547.5
   813.3
   516.5
   417.9
   810.1
   871.0
   771.9
   827.5
   487.1
   268.5
   140.8
   515.2
   515.2
   223.0
   125.9
   242.3
   523.9
   478.6
   569.2
   244.7
   518.5
   165.3
   585.3
   623.4
   547.1
   258.5
   165.3
   148.8
   571.2
   592.0
   550.5
   429.1
   518.5
   244.7
   714.0
   804.6
   623.4
   610.9
   322.5
   522.3
   761.2
   695.0
   827.4
   429.1
   322.5
   518.5
   738.7
   683.2
   804.6
   699.6
   258.5
   244.7
   165.3
   612.7
   592.0
   633.4
   329.1
   258.5
   148.8
   572.1
   572.1
   595.9
   379.8
   613.3
   890.1
   890.1
   329.1
   652.5
   496.5
   786.4
   857.5
   715.2
     0.0
   173.8
     0.0
   421.6
   421.6
   335.4
   368.6
   173.8
   621.8
   677.8
   625.2
   574.5
     0.0
   189.3
   173.8
   435.9
   435.9
   220.6
   189.3
     0.0
   484.5
   484.5
   397.7
   687.9
   701.3
   864.3
   997.9
   730.8
   474.4
   360.8
   330.0
   688.8
   745.6
   632.0
   463.6
   224.4
   518.6
   715.7
   620.4
   811.0
    86.4
     0.0
     0.0
   220.3
   220.3
    95.2
    86.4
   183.2
   411.6
   467.5
   355.8
   492.4
   323.0
   373.8
   718.5
   720.5
   668.2
   776.2
   319.2
   146.3
   133.9
   517.3
   495.6
   539.0
   238.5
   373.8
   166.8
   593.4
   601.4
   585.4
   463.6
   146.3
   224.4
   602.9
   585.3
   620.4
   557.6
   508.3
   328.6
   757.8
   853.5
   662.0
   361.6
   238.5
   349.8
   609.5
   572.9
   646.1
   361.6
   421.1
   238.5
   702.4
   702.4
   347.6
   610.4
   224.4
   651.9
   675.3
   628.4
   360.8
   488.9
   549.9
   696.7
   734.2
   663.5
   706.2
   331.2
   319.2
   523.0
   634.6
   621.0
   648.2
   187.5
   224.4
   610.4
   571.2
   628.4
   514.0
   518.6
   624.0
   349.8
   775.7
   713.5
   837.9
   687.9
   282.2
   604.5
   854.0
   854.0
   604.5
   282.2
   642.6
   937.4
   937.4
   661.8
   330.0
   439.6
   736.7
   746.0
   727.8
   743.0
   359.4
   604.5
   642.6
   833.2
   696.8
   937.4
   764.7
   564.7
   604.5
   357.2
   796.5
   894.3
   764.0
   732.4
   141.3
   439.6
    98.2
   547.9
   544.1
   551.8
   337.3
   216.7
   421.2
   668.1
   668.1
   454.2
   140.8
   516.5
   642.8
   541.0
   604.2
   799.4
   454.2
   813.3
   536.3
   829.1
   890.7
   767.6
   199.2
   661.8
   439.6
   675.8
   605.6
   746.0
   348.1
   683.6
   715.8
   868.9
   997.5
   740.2
   229.4
   564.7
   357.2
   629.1
   525.8
   732.4
   513.9
   736.7
   871.8
   968.0
  1046.2
   889.7
   348.1
   370.1
   188.4
   636.8
   709.8
   512.9
   607.3
   490.5
   241.7
   495.6
   695.8
   792.8
   631.0
   670.8
   337.3
   444.7
   490.5
   750.7
   789.4
   712.0
   697.6
   490.5
   444.7
   833.1
   876.7
   789.4
   442.1
   241.7
   490.5
   733.1
   670.8
   795.5
   492.4
   636.3
   557.6
   870.2
   927.8
   818.4
   871.0
   456.3
   253.3
   187.0
   590.0
   615.8
   564.2
   361.6
   624.0
   533.1
   785.7
   715.5
   856.0
   223.0
   242.3
   417.9
   596.3
   623.4
   569.2
   154.7
   125.9
   175.9
   552.9
   547.5
   558.2
   454.2
   536.3
   185.4
   767.6
   767.6
   416.6
   335.4
   220.6
   600.9
   573.7
   628.1
   154.7
   242.3
   125.9
   487.4
   487.4
   564.7
   154.7
   243.8
   623.3
   565.4
   681.3
   409.9
   244.7
   258.5
   655.0
   676.7
   633.4
   243.8
   154.7
   175.9
   561.8
   558.2
   565.4
   280.2
   379.8
   223.9
   626.2
   598.7
   653.7
   610.9
   522.3
   311.3
   751.3
   722.7
   827.4
   703.3
   595.9
   808.7
   813.3
  1013.1
  1112.2
   916.0
   960.4
   564.7
   223.9
   154.7
   609.4
   609.4
   919.0
   518.8
   701.3
   977.3
   910.9
  1043.8
   463.6
   518.6
   349.8
   732.3
   661.0
   713.5
   811.0
   429.1
   536.3
   838.4
   810.0
   746.6
   873.3
   409.9
   643.2
   536.3
   835.5
   881.4
   789.7
   652.5
   579.7
   467.3
   835.4
   853.6
   821.7
   840.4
   652.5
   467.3
   496.5
   825.4
   791.2
   857.5
   840.4
   416.6
   612.0
   335.4
   694.9
   761.7
   628.1
     0.0
   220.6
     0.0
   547.3
   547.3
   467.3
   771.6
   496.5
   823.6
   856.0
   791.2
   321.7
   416.6
   155.3
   583.0
   551.4
   614.6
   314.3
   235.3
   509.5
   660.2
   726.2
   663.4
   608.5
    95.2
     0.0
     0.0
   435.5
   435.5
   102.0
    95.2
   235.3
   419.9
   442.5
   397.3
   492.4
   557.6
   328.6
   818.4
   818.4
   456.3
   508.3
   557.6
   812.2
   780.4
   853.5
   790.8
   518.8
   610.4
   526.4
   829.3
   812.8
   814.9
   843.2
   190.5
   229.4
   357.2
   469.0
   412.2
   525.8
   701.3
   518.8
   526.4
   879.5
   903.2
   843.2
   910.9
   361.6
   636.3
   421.1
   717.9
   702.4
   733.4
   748.4
   557.6
   636.3
   947.6
   929.3
   927.8
   985.8
   325.5
   229.4
   471.9
   610.1
   550.9
   669.4
   254.5
   518.8
   468.3
   769.9
   769.9
   513.9
   523.0
   838.1
   857.9
   819.5
   879.3
   906.2
   190.5
   288.9
   229.4
   430.9
   491.0
   370.7
   254.5
   533.4
   523.0
   725.1
   835.2
   615.1
   309.7
   474.4
   661.8
   780.8
   871.3
   686.2
   734.2
   564.7
   701.3
   604.5
   926.3
   894.3
   955.8
   943.6
   533.1
   748.4
   636.3
   931.3
   895.9
   985.8
   932.1
   348.1
   715.8
   309.7
   701.8
   663.3
   740.2
   793.8
   975.8
  1092.9
  1193.9
  1120.8
  1267.0
   474.4
   330.0
   661.8
   807.2
   743.0
   871.3
   309.7
   661.8
   199.2
   686.2
   686.2
   325.5
   564.7
   229.4
   711.0
   711.0
   894.1
   975.7
   533.1
  1197.5
  1197.5
   694.6
   700.1
   360.8
   868.6
   791.8
   782.3
  1002.1
   375.3
   185.4
   593.1
   684.8
   684.8
   365.9
   442.1
   539.2
   735.1
   690.1
   780.1
   348.1
   309.7
   199.2
   663.3
   663.3
  1107.1
   919.0
  1029.1
  1276.4
  1220.5
  1332.4
   764.3
   701.3
   564.7
   986.1
  1058.5
   943.6
   889.9
   536.3
   593.1
   185.4
   843.6
   843.6
   854.6
   490.5
   697.6
   931.3
   904.0
   876.7
  1033.9
   854.6
   442.1
   490.5
   849.7
   904.0
   795.5
   375.3
   593.1
   691.9
   796.0
   907.3
   684.8
   796.8
   700.1
   939.3
  1065.0
  1013.9
  1123.4
  1030.9
   595.9
   417.9
   379.8
   760.2
   785.8
   734.6
   223.9
   242.3
   154.7
   513.4
   539.4
   487.4
   808.7
   995.0
   913.5
  1134.0
  1215.6
  1055.8
  1113.8
   736.7
   838.1
  1096.0
  1125.9
  1093.4
  1158.5
   700.1
   487.8
   325.5
   801.2
   722.7
   879.8
   311.3
   522.3
   387.2
   750.7
   778.7
   722.7
   429.1
   839.5
   733.1
  1015.2
  1015.2
   280.2
   519.9
   613.3
   796.1
   889.1
   703.1
   525.8
   387.2
   888.9
   820.4
   730.3
   910.4
  1141.5
   839.5
   838.4
  1127.0
  1165.8
  1092.6
  1155.0
   808.7
   913.5
   536.3
  1055.8
  1055.8
   573.2
   839.5
   947.5
  1039.4
   937.2
  1141.6
   429.1
   838.4
   839.5
  1092.6
  1092.6
   643.2
   838.4
   536.3
   924.0
   881.4
   873.3
   996.9
   793.8
  1092.9
   838.4
  1142.2
  1166.2
  1118.3
   573.2
   733.1
   839.5
   954.8
   937.2
  1015.2
   923.6
    85.0
   220.6
     0.0
   485.0
   422.8
   547.3
   234.3
   435.6
   467.3
   768.6
   768.6
   321.7
   467.3
   579.7
   765.8
   821.7
   710.0
   416.6
    85.0
   155.3
   534.2
   551.4
   517.0
     0.0
    85.0
     0.0
   389.8
   389.8
   274.0
    85.0
     0.0
   414.1
   438.5
   389.8
   947.0
   715.8
   683.6
  1013.6
  1010.9
   997.5
  1039.3
   871.8
   624.0
   518.6
   900.3
   962.8
   837.9
   143.4
   206.7
   314.3
   508.3
   477.0
   539.7
    47.8
   102.0
   101.0
   428.4
   427.4
   429.4
   102.0
     0.0
     0.0
   485.3
   485.3
   187.0
   143.4
   314.3
   554.4
   569.1
   539.7
   143.4
   388.1
   101.0
   505.5
   487.1
   523.9
   492.7
   557.6
   748.4
   868.4
   834.4
   929.3
   833.9
   533.4
   838.1
   523.0
   857.2
   835.2
   879.3
   894.1
   624.0
   871.8
  1053.4
   983.8
   962.8
  1180.8
   919.0
   806.5
   518.8
  1014.4
   890.9
  1138.0
   876.6
  1096.0
   838.1
  1159.5
  1138.6
  1158.5
  1192.3
   736.7
  1058.8
   871.8
  1111.2
  1176.1
  1046.2
   533.4
   876.6
   838.1
  1138.6
  1138.6
   975.7
   748.4
   533.1
  1022.4
  1112.7
   932.1
   533.4
   806.5
   876.6
  1012.2
   893.6
  1130.7
   694.6
   360.8
   474.4
   763.9
   745.6
   782.3
  1029.1
   919.0
   701.3
  1132.1
  1043.8
  1220.5
   325.5
   764.3
   564.7
   800.4
   711.0
   889.9
   764.3
  1029.1
   701.3
  1089.4
  1058.5
  1120.2
   854.6
   697.6
  1025.4
  1096.7
  1033.9
  1159.5
   494.3
   713.5
   309.7
   812.8
   812.8
   713.5
   474.4
   309.7
   787.0
   839.8
   734.2
   694.6
   890.6
   939.3
  1117.8
  1203.5
  1032.2
   992.2
  1107.1
  1166.8
  1345.5
  1294.3
  1396.7
   894.1
  1058.8
  1135.7
  1278.6
  1217.8
  1371.1
  1220.5
   704.5
   467.3
   435.6
   811.1
   870.6
   768.6
   810.0
   539.2
   947.0
   683.6
   939.5
   868.2
  1010.9
   730.9
   593.4
   764.5
   987.6
   925.1
  1050.1
   715.8
   494.3
   309.7
   862.8
   862.8
   890.6
  1102.3
   939.3
  1213.7
  1235.8
  1203.5
  1202.4
   913.5
   691.9
   593.1
   965.0
   945.0
   907.3
  1054.0
   990.7
   715.8
   947.0
  1136.4
  1052.7
  1039.3
  1257.9
   866.6
   713.5
   494.3
   914.3
  1015.9
   812.8
   375.3
   691.9
   697.6
   916.9
  1039.9
   794.0
   913.5
   593.1
   536.3
   894.3
   843.6
   945.0
   854.6
   974.3
   764.5
  1099.3
  1164.8
  1033.7
   796.8
   939.3
  1102.3
  1179.6
  1235.8
  1123.4
   784.4
   748.4
   975.7
  1102.0
  1088.7
  1112.7
  1117.7
   691.9