# vtk DataFile Version 3.0
rivers
ASCII
DATASET UNSTRUCTURED_GRID
POINTS       2125 float
           0.000           0.000           0.000
        1600.000           0.000           0.000
        3200.000           0.000           0.000
        4800.000           0.000           0.000
        6400.000           0.000           0.000
        8000.000           0.000           0.000
        9600.000           0.000           0.000
       11200.000           0.000           0.000
       12800.000           0.000           0.000
       14400.001           0.000           0.000
       16000.000           0.000           0.000
       17600.000           0.000           0.000
       19200.000           0.000           0.000
       20799.999           0.000           0.000
       22400.000           0.000           0.000
       24000.001           0.000           0.000
       25599.999           0.000           0.000
       27200.000           0.000           0.000
       28800.001           0.000           0.000
       30400.000           0.000           0.000
       32000.000           0.000           0.000
       33599.999           0.000           0.000
       35200.000           0.000           0.000
       36800.001           0.000           0.000
       38399.999           0.000           0.000
       40000.000           0.000           0.000
       41599.998           0.000           0.000
       43200.002           0.000           0.000
       44800.000           0.000           0.000
       46399.999           0.000           0.000
       48000.002           0.000           0.000
       49600.000           0.000           0.000
       51199.999           0.000           0.000
       52800.002           0.000           0.000
       54400.001           0.000           0.000
       55999.999           0.000           0.000
       57600.002           0.000           0.000
       59200.001           0.000           0.000
       60799.999           0.000           0.000
       62399.998           0.000           0.000
       64000.001           0.000           0.000
       65599.999           0.000           0.000
       67199.998           0.000           0.000
       68800.001           0.000           0.000
       70400.000           0.000           0.000
       71999.998           0.000           0.000
       73600.001           0.000           0.000
       75200.000           0.000           0.000
       76799.998           0.000           0.000
       78400.002           0.000           0.000
       80000.000           0.000           0.000
           0.000        1600.000           0.000
        1820.535        1836.129         175.605
        4436.497        1560.645         229.660
        8231.839        1585.959         197.434
       11192.297        1979.624         139.449
       14535.388        1860.001          66.538
       17224.315        1919.917         343.177
       20899.237        1802.853         281.535
       23731.335        1792.943         202.163
       27507.238        1603.221         213.565
       30065.602        1613.570         368.715
       33371.579        1994.991          55.278
       37099.539        1414.823         362.571
       38196.713        1837.356          85.537
       41840.942        1855.796         314.431
       43418.644        1867.336          74.946
       49975.028        1831.460         326.810
       52954.322        1538.422         128.147
       55816.240        1531.934         168.491
       59004.449        1641.677          47.156
       60471.826        1510.939         295.721
       63784.513        1656.536         287.372
       67301.210        1771.228         120.277
       70381.695        1920.216         311.145
       72217.113        1448.806          90.303
       75069.462        1621.662         162.062
       78696.327        1722.356         244.414
       80000.000        1600.000           0.000
           0.000        3200.000           0.000
        3274.399        3217.174         446.211
        5160.666        3300.186         270.076
        6043.012        3262.445         125.776
        9502.865        3552.908         328.175
       11056.006        2840.019         205.189
       14606.628        2840.755          95.867
       17562.634        3511.308         255.717
       18833.142        3539.080          81.940
       22026.411        2868.051         266.262
       25600.029        2863.835         109.640
       27192.156        3106.980         358.439
       30375.600        2888.881         243.476
       33224.678        2857.386          77.504
       36841.038        3085.085         156.608
       40238.304        3524.647         112.445
       43557.179        3128.631         119.400
       46228.872        2830.415         148.454
       48146.017        3166.706         355.006
       51153.215        2952.745          84.436
       53124.514        2981.904         237.816
       56001.007        3429.944         455.099
       59307.581        3225.477          85.805
       62124.444        3154.870         304.085
       64132.610        2904.590         110.576
       67439.924        3451.420         518.591
       68998.763        3472.006         182.452
       72219.436        2879.026         150.336
       75532.535        3132.944         379.033
       78652.387        3551.841         173.271
       80000.000        3200.000           0.000
           0.000        4800.000           0.000
        1400.060        4439.660         183.175
        4786.648        4655.285         534.712
       11454.778        4403.585         386.852
       14098.429        4923.032         178.684
       17912.789        5043.475         168.408
       20446.875        4859.061         152.450
       24108.597        4895.159         491.649
       27234.832        4431.193         311.144
       28696.423        4449.033         649.501
       32196.694        4589.490         134.611
       33867.228        4797.771         500.874
       34933.129        4760.558         561.805
       38067.139        5053.208         433.627
       41605.852        4581.133         386.075
       44854.687        5021.321         494.305
       48175.269        4416.823         441.265
       51163.202        5122.950         169.554
       54186.876        4703.411         528.597
       56317.818        4828.699         444.589
       59169.326        5108.954         141.953
       62536.999        4516.819         207.705
       65848.099        4445.450         320.053
       68694.276        4766.024         279.041
       71946.222        4752.098         267.580
       75433.121        5067.460         611.531
       78033.243        4664.320         189.059
       80000.000        4800.000           0.000
           0.000        6400.000           0.000
        2841.623        6773.290         234.417
        6245.685        6376.243         523.327
        7744.385        6030.238         351.044
       11368.686        6592.994         475.426
       14270.010        6704.916         385.111
       17330.427        6370.488         267.721
       19571.144        6573.041         342.679
       22641.152        6627.002         634.923
       23763.572        6012.529         560.356
       27463.089        6427.221         657.050
       30273.002        6504.167         414.621
       33884.178        6077.220         419.313
       35390.886        6255.305         376.796
       38075.664        6205.118         660.937
       40048.604        6389.405         241.389
       43255.311        6307.072         315.244
       46126.564        6231.346         531.684
       48285.057        6596.744         547.289
       51294.080        6157.575         237.537
       54250.249        6543.358         817.062
       57921.865        6224.397         288.297
       59558.312        6004.572         179.256
       62425.662        6132.109         294.140
       65724.696        6341.122         523.511
       68956.079        6674.843         591.047
       72380.520        6490.972         520.643
       75318.037        6459.550         592.962
       78160.955        6114.578         213.219
       80000.000        6400.000           0.000
           0.000        8000.000           0.000
        3576.129        8217.635         197.763
        5061.593        7652.754         301.832
        8105.944        7856.844         603.989
       11121.498        7830.817         696.706
       14531.786        8256.985         686.101
       16036.950        7761.051         602.869
       19087.239        8020.414         565.210
       22626.171        7850.784         677.795
       25653.785        8135.625         816.669
       28733.316        8014.857         647.121
       30647.917        7622.140         311.792
       31669.813        8123.016         531.486
       35544.551        8083.612         558.377
       38771.621        7743.567         421.838
       41941.639        8315.419         747.033
       44649.095        8053.831         597.207
       48005.993        8300.872         798.973
       51584.272        8303.210         777.203
       52951.115        7723.006         682.470
       55834.828        8389.314         702.978
       58839.904        7674.993         286.294
       60484.772        8202.290         610.953
       63784.723        8145.830         502.648
       67326.420        8175.747         945.075
       68571.734        8073.207         927.324
       72193.925        8373.058         795.396
       73714.578        7878.720         504.123
       77044.523        8185.581         158.215
       78448.742        7636.455          85.675
       80000.000        8000.000           0.000
           0.000        9600.000           0.000
        3060.393        9702.503         120.387
        6737.398        9989.628         329.654
[...]
POINT_DATA       2125
SCALARS discharge float 1
LOOKUP_TABLE default
  0.1006E+05
  0.1918E+07
  0.1268E+08
  0.1985E+07
  0.3477E+08
  0.1226E+07
  0.2491E+08
  0.1359E+07
  0.3074E+07
  0.1285E+07
  0.5804E+08
  0.2377E+07
  0.9683E+08
  0.1495E+07
  0.1517E+08
  0.2120E+07
  0.3404E+08
  0.1857E+07
  0.6339E+07
  0.2421E+07
  0.1002E+09
  0.1959E+07
  0.3736E+07
  0.1248E+07
  0.1851E+07
  0.9791E+08
  0.2117E+07
  0.3618E+07
  0.6808E+08
  0.1948E+07
  0.7031E+07
  0.1884E+07
  0.6347E+08
  0.1548E+07
  0.1315E+08
  0.1038E+07
  0.1042E+09
  0.3161E+07
  0.1845E+07
  0.6727E+07
  0.1122E+07
  0.7411E+08
  0.1035E+07
  0.2533E+08
  0.2905E+08
  0.8365E+06
  0.1895E+07
  0.1001E+07
  0.1141E+08
  0.1128E+07
  0.7276E+04
  0.3335E+05
  0.6601E+07
  0.2884E+07
  0.4153E+07
  0.1026E+08
  0.5317E+08
  0.1186E+07
  0.2042E+07
  0.4345E+07
  0.3405E+07
  0.9488E+06
  0.8611E+08
  0.9016E+06
  0.3882E+08
  0.1341E+07
  0.4482E+08
  0.1284E+07
  0.1064E+08
  0.7467E+07
  0.9372E+08
  0.1435E+07
  0.1025E+07
  0.1596E+08
  0.9818E+06
  0.2683E+08
  0.8277E+07
  0.2462E+07
  0.7670E+04
  0.3271E+05
  0.1675E+07
  0.4303E+07
  0.2422E+08
  0.4150E+07
  0.7323E+07
  0.4856E+08
  0.2592E+07
  0.8965E+08
  0.3735E+07
  0.2589E+08
  0.2516E+07
  0.6495E+07
  0.7901E+08
  0.3346E+08
  0.5293E+08
  0.4231E+08
  0.1679E+08
  0.1586E+07
  0.5815E+08
  0.7508E+07
  0.1856E+07
  0.8896E+08
  0.2465E+07
  0.5075E+08
  0.3839E+06
  0.1867E+08
  0.2348E+08
  0.2675E+07
  0.4451E+07
  0.2478E+07
  0.1908E+05
  0.6527E+07
  0.1712E+07
  0.4461E+07
  0.3559E+08
  0.2400E+08
  0.5805E+08
  0.1186E+07
  0.9080E+07
  0.9389E+06
  0.7470E+08
  0.8362E+06
  0.7403E+06
  0.2538E+07
  0.1467E+07
  0.1515E+07
  0.2353E+07
  0.5122E+08
  0.2634E+07
  0.4234E+07
  0.7618E+08
  0.4419E+08
  0.1076E+08
  0.1452E+08
  0.1305E+08
  0.9412E+06
  0.4328E+07
  0.1259E+08
  0.1509E+08
  0.4829E+07
  0.2258E+07
  0.1153E+08
  0.6598E+07
  0.6486E+07
  0.1788E+08
  0.7436E+07
  0.8295E+06
  0.3564E+07
  0.3447E+07
  0.3335E+07
  0.7346E+07
  0.2177E+08
  0.9931E+06
  0.4472E+08
  0.2758E+08
  0.4684E+07
  0.7871E+07
  0.3193E+08
  0.8409E+06
  0.1488E+08
  0.5677E+08
  0.3948E+08
  0.6910E+07
  0.6362E+07
  0.3349E+07
  0.1009E+07
  0.3784E+07
  0.2214E+08
  0.1359E+08
  0.9547E+07
  0.7308E+07
  0.5218E+07
  0.3475E+07
  0.3301E+07
  0.4714E+07
  0.5103E+07
  0.1254E+08
  0.4814E+07
  0.4431E+07
  0.4449E+08
  0.4514E+07
  0.1674E+08
  0.2945E+08
  0.1755E+07
  0.1129E+08
  0.5077E+07
  0.2087E+07
  0.8055E+07
  0.7563E+07
  0.4858E+08
  0.2967E+07
  0.2403E+08
  0.1311E+07
  0.2668E+07
  0.1908E+07
  0.7185E+07
  0.1913E+08
  0.2212E+08
  0.1886E+07
  0.3236E+05
  0.3648E+08
  0.2012E+08
  0.3687E+07
  0.1086E+08
  0.1691E+07
  0.2280E+07
  0.4779E+07
  0.6855E+07
  0.4721E+07
  0.4153E+07
  0.3704E+08
  0.2242E+07
  0.1337E+07
  0.2076E+08
  0.3244E+07
  0.1950E+07
  0.7009E+07
  0.2195E+07
  0.1145E+08
  0.3194E+07
  0.1456E+07
  0.1802E+07
  0.4115E+07
  0.1299E+07
  0.3490E+07
  0.6397E+07
  0.1192E+07
  0.2412E+07
  0.1870E+07
  0.1259E+05
  0.4381E+08
  0.2017E+07
  0.5279E+07
  0.7738E+07
  0.1655E+07
  0.9631E+07
  0.3487E+07
  0.6421E+07
  0.4886E+07
  0.2127E+07
  0.2812E+08
  0.1161E+07
  0.4039E+07
  0.7439E+07
  0.4022E+07
  0.3229E+07
  0.1544E+08
  0.3264E+07
  0.5216E+07
  0.1943E+07
  0.4872E+07
  0.7238E+07
  0.2477E+08
  0.3251E+07
  0.1116E+08
  0.2066E+07
  0.5267E+07
  0.3129E+07
  0.1917E+07
  0.1533E+07
  0.7711E+07
  0.9856E+04
  0.1484E+08
  0.6065E+06
  0.1531E+07
  0.1910E+07
  0.1471E+07
  0.1828E+08
  0.1184E+08
  0.2609E+07
  0.1033E+07
  0.4872E+07
  0.2093E+08
  0.1864E+07
  0.7674E+07
  0.5846E+07
  0.1067E+08
  0.5119E+07
  0.2423E+07
  0.3391E+07
  0.1793E+08
  0.3152E+07
  0.3890E+07
  0.2626E+08
  0.2298E+07
  0.5608E+07
  0.1533E+08
  0.6538E+07
  0.2116E+07
  0.3527E+07
  0.5022E+07
  0.6988E+07
  0.3407E+08
  0.3842E+08
  0.4114E+08
  0.5261E+08
  0.1794E+05
  0.1042E+08
  0.7340E+07
  0.5530E+07
  0.6313E+07
  0.2398E+07
  0.3261E+07
  0.4668E+07
  0.1343E+08
  0.3435E+07
  0.2195E+07
  0.9361E+07
  0.4536E+08
  0.2253E+07
  0.4555E+07
  0.1441E+08
  0.2372E+07
  0.4514E+07
  0.6794E+07
  0.1313E+08
  0.2591E+08
  0.1455E+08
  0.5731E+07
  0.3486E+07
  0.3820E+07
  0.7951E+07
  0.4232E+07
  0.1334E+07
  0.2972E+07
  0.7188E+07
  0.6955E+08
  0.6053E+08
  0.4373E+08
  0.2830E+08
  0.6374E+07
  0.2622E+07
  0.3042E+08
  0.3515E+07
  0.7851E+07
  0.4091E+07
  0.1047E+08
  0.2810E+07
  0.1501E+08
  0.1101E+08
  0.4775E+07
  0.1654E+07
  0.7561E+07
  0.3769E+07
  0.2764E+07
  0.1861E+08
  0.3167E+07
  0.2836E+07
  0.3318E+07
  0.9238E+07
  0.5679E+07
  0.1926E+08
  0.3546E+07
  0.2876E+07
  0.9700E+07
  0.1817E+07
  0.1308E+05
  0.1891E+05
  0.2331E+07
  0.2884E+07
  0.2121E+07
  0.4803E+07
  0.6852E+07
  0.4252E+08
  0.3251E+07
  0.2814E+08
  0.1099E+08
  0.2913E+07
  0.4876E+07
  0.8637E+07
  0.3747E+07
  0.2951E+07
  0.2173E+08
  0.2436E+07
  0.2554E+07
  0.1250E+08
  0.4581E+07
  0.5655E+07
  0.4289E+07
  0.2784E+08
  0.3537E+08
  0.2635E+07
  0.5660E+07
  0.1342E+07
  0.3112E+07
  0.8128E+08
  0.8501E+08
  0.3200E+05
  0.6454E+06
  0.8884E+07
  0.2352E+07
  0.6401E+07
  0.6164E+07
  0.9730E+07
  0.1482E+08
  0.6353E+07
  0.1075E+08
  0.5373E+07
  0.4038E+07
  0.5598E+07
  0.1478E+08
  0.2615E+08
  0.3405E+07
  0.1317E+08
  0.2477E+07
  0.2238E+08
  0.4478E+07
  0.3857E+07
  0.2150E+07
  0.1074E+08
  0.1578E+08
  0.2417E+07
  0.4776E+07
  0.2674E+08
  0.5456E+08
  0.2239E+07
  0.5593E+07
  0.8889E+08
  0.7973E+08
  0.5438E+08
  0.2506E+08
  0.1388E+08
  0.4807E+07
  0.6839E+07
  0.8064E+07
  0.4498E+07
  0.5913E+08
  0.1044E+08
  0.8266E+07
  0.1427E+08
  0.6602E+07
  0.1880E+07
  0.1861E+07
  0.1282E+07
  0.9425E+07
  0.4955E+07
  0.2157E+08
  0.5602E+07
  0.1159E+08
  0.3937E+07
  0.2836E+07
  0.2011E+07
  0.1455E+08
  0.4054E+07
  0.1776E+07
  0.1206E+07
  0.2150E+07
  0.1576E+08
  0.3109E+05
  0.1905E+07
  0.5930E+07
  0.5788E+07
  0.5501E+07
  0.5562E+07
  0.2786E+08
  0.2467E+07
  0.4237E+07
  0.2121E+08
  0.2111E+07
  0.2816E+07
  0.5369E+07
  0.1607E+08
  0.2740E+07
  0.1572E+08
  0.1305E+08
  0.1256E+08
  0.2042E+07
  0.2714E+07
  0.2129E+07
  0.4943E+07
  0.3370E+07
  0.1792E+08
  0.2255E+07
  0.4767E+07
  0.2845E+07
  0.3515E+07
  0.6882E+07
  0.1574E+08
  0.2370E+07
  0.9029E+07
  0.5509E+07
  0.1218E+07
  0.1239E+07
  0.1117E+08
  0.3828E+07
  0.3002E+07
  0.1119E+08
  0.4997E+07
  0.7839E+07
  0.6978E+07
  0.2077E+08
  0.3942E+07
  0.5077E+07
  0.2381E+08
  0.3497E+07
  0.1354E+08
  0.1610E+07
  0.4079E+07
  0.1282E+08
  0.2067E+07
  0.1282E+08
  0.1716E+08
  0.6770E+07
  0.3391E+07
  0.5007E+07
  0.2617E+07
  0.3621E+07
  0.1056E+07
  0.2373E+07
  0.2355E+07
  0.7348E+04
  0.3456E+08
  0.3123E+08
  0.2374E+08
  0.1584E+08
  0.7921E+07
  0.3589E+07
  0.1251E+08
  0.3131E+07
  0.2325E+07
  0.1157E+08
  0.2934E+07
  0.5736E+08
  0.1202E+08
  0.1842E+07
  0.4817E+07
  0.4769E+08
  0.4596E+07
  0.3763E+07
  0.2416E+08
  0.2329E+07
  0.4148E+07
  0.2519E+07
  0.2802E+08
  0.3069E+07
  0.2110E+08
  0.9053E+07
  0.2791E+07
  0.9511E+07
  0.2679E+08
  0.3784E+08
  0.4659E+08
  0.1140E+05
  0.2049E+08
  0.1709E+08
  0.7870E+07
  0.3588E+07
  0.1337E+08
  0.2168E+07
  0.2285E+08
  0.5606E+07
  0.7272E+07
  0.2643E+07
  0.3677E+07
  0.7174E+07
  0.1082E+08
  0.7356E+07
  0.9211E+07
  0.4448E+07
  0.4029E+07
  0.2420E+07
  0.4113E+07
  0.2459E+08
  0.6255E+07
  0.4073E+07
  0.1007E+08
  0.2185E+07
  0.2057E+07
  0.8723E+07
  0.5286E+07
  0.3905E+07
  0.1602E+07
  0.5990E+08
  0.3885E+07
  0.1172E+07
  0.1253E+08
  0.3817E+08
  0.2695E+08
  0.5923E+07
  0.1228E+08
  0.2840E+08
  0.8165E+07
  0.3006E+08
  0.3235E+07
  0.5167E+07
  0.2109E+08
  0.3377E+07
  0.1660E+08
  0.2765E+08
  0.1279E+08
  0.3174E+07
  0.2648E+07
  0.1330E+08
  0.1106E+08
  0.3217E+08
  0.6322E+07
  0.2073E+07
  0.3062E+07
  0.5800E+07
  0.2466E+07
  0.8248E+07
  0.7526E+04
  0.1697E+07
  0.9422E+06
  0.4866E+08
  0.1529E+07
  0.2062E+07
  0.3433E+07
  0.2797E+07
  0.3618E+07
  0.6456E+07
  0.4194E+07
  0.5796E+07
  0.5856E+07
  0.3734E+07
  0.3255E+07
  0.5997E+07
  0.3233E+07
  0.1013E+08
  0.3340E+07
  0.3765E+07
  0.8635E+07
  0.5827E+07
  0.7818E+07
  0.7177E+07
  0.2586E+08
  0.4907E+08
  0.1101E+08
  0.5766E+07
  0.3047E+08
  0.3673E+06
  0.2361E+07
  0.6359E+07
  0.1178E+09
  0.1135E+09
  0.5679E+08
  0.3852E+08
  0.3518E+08
  0.7508E+07
  0.1016E+08
  0.1052E+08
  0.1536E+08
  0.2688E+07
  0.4694E+07
  0.1649E+08
  0.7500E+07
  0.2164E+07
  0.1062E+08
  0.2362E+07
  0.1819E+08
  0.3794E+07
  0.2050E+08
  0.3945E+07
  0.2652E+08
  0.9125E+07
  0.3734E+08
  0.2551E+07
  0.1865E+08
  0.3452E+07
  0.8153E+07
  0.8651E+07
  0.6424E+07
  0.3502E+08
  0.1892E+07
  0.8769E+04
  0.2149E+05
  0.4026E+07
  0.8677E+07
  0.3396E+07
  0.1120E+08
  0.6041E+07
  0.2448E+07
  0.2241E+07
  0.1621E+08
  0.3064E+07
  0.3513E+08
  0.2465E+07
  0.2248E+07
  0.1961E+08
  0.4508E+07
  0.3054E+07
  0.6317E+07
  0.5379E+07
  0.7854E+07
  0.1282E+08
  0.5033E+07
  0.7114E+07
  0.1159E+08
  0.3845E+07
  0.4856E+07
  0.3683E+07
  0.2538E+07
  0.3337E+08
  0.8023E+08
  0.8180E+08
  0.1872E+08
  0.1072E+08
  0.4425E+07
  0.2057E+07
  0.1640E+07
  0.1698E+07
  0.9675E+07
  0.1828E+08
  0.7425E+07
  0.1383E+08
  0.4337E+07
  0.9731E+07
  0.2622E+08
  0.5325E+07
  0.2590E+07
  0.9464E+07
  0.3152E+08
  0.5129E+07
  0.4520E+07
  0.3178E+07
  0.6415E+07
  0.1014E+08
  0.4908E+07
  0.4635E+07
  0.2499E+07
  0.4536E+07
  0.8342E+07
  0.2848E+08
  0.2702E+07
  0.1538E+07
  0.1208E+05
  0.3465E+05
  0.1067E+07
  0.3637E+07
  0.7742E+07
  0.8448E+07
  0.1801E+07
  0.1338E+08
  0.2759E+07
  0.3113E+07
  0.3063E+07
  0.1818E+08
  0.3854E+07
  0.7190E+07
  0.1916E+08
  0.2992E+07
  0.6808E+07
  0.4620E+07
  0.4107E+07
  0.8266E+07
  0.2477E+08
  0.5717E+07
  0.1776E+08
  0.1749E+08
  0.1436E+08
  0.2605E+07
  0.2037E+07
  0.1533E+07
  0.1336E+07
  0.1273E+08
  0.8045E+04
  0.9101E+08
  0.8547E+08
  0.7166E+08
  0.4089E+08
  0.2447E+08
  0.5899E+07
  0.3316E+07
  0.1368E+08
  0.1884E+08
  0.1021E+08
  0.3365E+07
  0.4240E+07
  0.6525E+07
  0.3695E+07
  0.1367E+08
  0.1227E+08
  0.2929E+07
  0.2266E+08
  0.3632E+08
  0.5185E+07
  0.3630E+07
  0.3119E+07
  0.3343E+07
  0.4077E+06
  0.1689E+07
  0.2568E+07
  0.2608E+07
  0.7282E+07
  0.2439E+08
  0.2120E+08
  0.1436E+08
  0.2234E+07
  0.7404E+07
  0.3511E+07
  0.4293E+07
  0.2292E+07
  0.7824E+07
  0.5198E+07
  0.2717E+07
  0.2512E+08
  0.6517E+07
  0.8803E+07
  0.1110E+08
  0.3245E+07
  0.5337E+07
  0.3445E+08
  0.9922E+07
  0.4174E+07
  0.3004E+07
  0.5353E+07
  0.3330E+07
  0.2104E+08
  0.2946E+07
  0.4221E+07
  0.3749E+07
  0.8369E+07
  0.5767E+07
  0.2000E+07
  0.6028E+07
  0.1164E+08
  0.7531E+07
  0.4564E+07
  0.1315E+07
  0.4905E+07
  0.5948E+07
  0.3292E+07
  0.1504E+08
  0.5191E+08
  0.3448E+08
  0.2202E+08
  0.1909E+08
  0.1226E+08
  0.4807E+07
  0.3813E+07
  0.2441E+07
  0.1875E+08
  0.7306E+07
  0.8062E+07
  0.3682E+07
  0.2319E+08
  0.3578E+07
  0.1633E+08
  0.4322E+07
  0.1048E+08
  0.2449E+08
  0.4903E+07
  0.1729E+08
  0.2411E+08
  0.3771E+08
  0.1334E+07
  0.6649E+07
  0.9707E+04
  0.3075E+05
  0.4518E+07
  0.1608E+07
  0.3669E+08
  0.4074E+07
  0.6457E+07
  0.4649E+07
  0.6938E+07
  0.2303E+07
  0.1752E+08
  0.3380E+07
  0.6168E+07
  0.7547E+07
  0.4619E+07
  0.3856E+08
  0.2336E+07
  0.2273E+07
  0.3459E+07
  0.6223E+07
  0.3562E+07
  0.1674E+08
  0.3107E+07
  0.6275E+07
  0.5631E+07
  0.2755E+07
  0.1006E+07
  0.1497E+07
  0.1827E+07
  0.5056E+08
  0.1358E+07
  0.1341E+05
  0.5443E+08
  0.4896E+08
  0.3110E+07
  0.1016E+08
  0.4602E+07
  0.2596E+07
  0.2509E+07
  0.3135E+08
  0.6399E+07
  0.3027E+07
  0.6655E+07
  0.2145E+08
  0.6750E+07
  0.1878E+08
  0.4206E+07
  0.5322E+07
  0.5569E+07
  0.8211E+07
  0.3050E+07
  0.1167E+08
  0.8534E+07
  0.1290E+08
  0.3925E+08
  0.1490E+08
  0.2349E+07
  0.5404E+07
  0.1487E+08
  0.2354E+07
  0.1476E+08
  0.2954E+08
  0.1053E+09
  0.1092E+09
  0.1128E+09
  0.2914E+05
  0.3163E+08
  0.1650E+08
  0.1488E+07
  0.1053E+07
  0.1029E+08
  0.4993E+07
  0.1303E+08
  0.4379E+07
  0.3192E+07
  0.1660E+08
  0.3740E+07
  0.3567E+07
  0.6865E+08
  0.4918E+07
  0.1969E+08
  0.8261E+07
  0.3100E+08
  0.9157E+07
  0.1066E+08
  0.3294E+07
  0.4264E+07
  0.3153E+07
  0.2153E+07
  0.4904E+07
  0.3239E+07
  0.5763E+07
  0.6245E+07
  0.8495E+07
  0.1057E+08
  0.1974E+08
  0.8015E+07
  0.1373E+08
  0.3167E+08
  0.8046E+07
  0.4599E+07
  0.3429E+07
  0.9229E+06
  0.1874E+08
  0.6494E+07
  0.3771E+07
  0.4660E+07
  0.4072E+07
  0.1401E+08
  0.3270E+08
  0.3854E+07
  0.3310E+07
  0.3224E+07
  0.3053E+07
  0.7320E+07
  0.4920E+07
  0.4296E+07
  0.2125E+08
  0.4026E+07
  0.4032E+07
  0.1437E+08
  0.3888E+07
  0.5140E+07
  0.2701E+07
  0.2430E+07
  0.1004E+05
  0.1923E+05
  0.4594E+07
  0.2209E+07
  0.7948E+06
  0.1496E+08
  0.6953E+07
  0.3655E+07
  0.9332E+07
  0.3249E+07
  0.1316E+08
  0.8719E+07
  0.5124E+07
  0.1307E+08
  0.3855E+07
  0.1439E+08
  0.5301E+07
  0.3016E+08
  0.1236E+08
  0.3059E+07
  0.1533E+08
  0.2004E+08
  0.8769E+07
  0.1131E+08
  0.1100E+08
  0.2108E+07
  0.9261E+07
  0.2370E+07
  0.3684E+07
  0.2121E+07
  0.6792E+07
  0.8687E+07
  0.1256E+09
  0.1282E+08
  0.6899E+07
  0.1330E+07
  0.5079E+08
  0.1256E+08
  0.1653E+07
  0.2142E+08
  0.1989E+07
  0.2361E+08
  0.2360E+08
  0.1596E+07
  0.6262E+07
  0.5838E+07
  0.2755E+07
  0.2584E+07
  0.2477E+07
  0.2167E+08
  0.4523E+07
  0.4183E+08
  0.6713E+07
  0.3815E+07
  0.9948E+07
  0.2891E+07
  0.1897E+08
  0.1563E+08
  0.4481E+07
  0.1611E+08
  0.2497E+08
  0.2730E+08
  0.3266E+05
  0.1209E+09
  0.9921E+08
  0.9349E+08
  0.6019E+07
  0.5016E+07
  0.3340E+08
  0.2952E+07
  0.1050E+08
  0.2722E+07
  0.1018E+08
  0.1720E+08
  0.7022E+07
  0.2672E+08
  0.3079E+07
  0.1226E+08
  0.7734E+07
  0.2647E+07
  0.4735E+08
  0.1721E+08
  0.2883E+07
  0.2380E+07
  0.4010E+07
  0.1421E+08
  0.1675E+07
  0.1653E+07
  0.2692E+07
  0.1290E+07
  0.1508E+07
  0.2748E+07
  0.5298E+07
  0.7134E+07
  0.2756E+07
  0.5259E+07
  0.1714E+08
  0.2752E+07
  0.1308E+08
  0.3121E+07
  0.1840E+08
  0.3165E+07
  0.3267E+07
  0.5387E+07
  0.3158E+07
  0.2305E+08
  0.4282E+07
  0.9670E+07
  0.4986E+07
  0.3148E+07
  0.6401E+07
  0.2594E+07
  0.7660E+08
  0.2023E+07
  0.1111E+08
  0.1982E+07
  0.6693E+07
  0.4920E+07
  0.7794E+07
  0.1978E+08
  0.1236E+07
  0.6667E+08
  0.7020E+08
  0.7343E+04
  0.7192E+08
  0.3018E+07
  0.2715E+07
  0.3296E+07
  0.2028E+07
  0.5446E+07
  0.1076E+08
  0.9369E+07
  0.3201E+07
  0.7267E+07
  0.5946E+07
  0.4438E+08
  0.3495E+07
  0.3965E+07
  0.7354E+07
  0.2168E+08
  0.4339E+08
  0.3382E+07
  0.2178E+08
  0.2305E+07
  0.1771E+08
  0.1114E+08
  0.2663E+07
  0.2331E+08
  0.2912E+07
  0.3672E+07
  0.1179E+08
  0.1863E+08
  0.6188E+08
  0.1543E+07
  0.7446E+08
  0.1796E+05
  0.6315E+08
  0.1019E+07
  0.1512E+07
  0.6511E+07
  0.1393E+07
  0.3142E+07
  0.4231E+07
  0.1860E+08
  0.1501E+08
  0.1631E+08
  0.8423E+07
  0.4339E+07
  0.1206E+08
  0.5073E+07
  0.1912E+07
  0.3677E+07
  0.1755E+07
  0.1133E+08
  0.2682E+07
  0.1847E+07
  0.2471E+07
  0.4762E+07
  0.2359E+07
  0.8124E+07
  0.8403E+06
  0.5941E+07
  0.1468E+08
  0.3328E+07
  0.1260E+05
  0.4456E+05
  0.4872E+08
  0.3583E+08
  0.1417E+08
  0.1678E+07
  0.2825E+08
  0.1782E+08
  0.4526E+07
  0.2878E+07
  0.2877E+08
  0.1465E+07
  0.2860E+08
  0.2171E+07
  0.2339E+08
  0.4375E+07
  0.2681E+08
  0.4332E+07
  0.1274E+08
  0.1900E+08
  0.2610E+07
  0.1821E+08
  0.2367E+07
  0.1840E+08
  0.2481E+07
  0.1954E+08
  0.2887E+07
  0.3789E+07
  0.3058E+07
  0.1467E+07
  0.8648E+07
  0.1699E+08
  0.1836E+05
  0.6635E+07
  0.1287E+07
  0.1262E+07
  0.4747E+07
  0.8051E+06
  0.7059E+07
  0.9699E+07
  0.3815E+07
  0.1869E+08
  0.2447E+07
  0.2310E+07
  0.6368E+07
  0.1307E+07
  0.1100E+08
  0.7637E+07
  0.3693E+07
  0.5009E+07
  0.5415E+07
  0.3398E+07
  0.5645E+07
  0.3535E+07
  0.5828E+07
  0.2867E+07
  0.3086E+07
  0.1442E+08
  0.4716E+07
  0.1450E+08
  0.2619E+08
  0.9533E+06
  0.1223E+07
  0.8542E+08
  0.6681E+07
  0.4813E+08
  0.1406E+07
  0.3843E+07
  0.3880E+07
  0.4503E+07
  0.1720E+07
  0.3530E+07
  0.5961E+07
  0.1571E+08
  0.3232E+07
  0.1750E+08
  0.4791E+07
  0.4345E+07
  0.3341E+07
  0.2984E+07
  0.2866E+08
  0.8306E+07
  0.5633E+07
  0.1953E+08
  0.4446E+07
  0.1056E+08
  0.2140E+07
  0.3060E+08
  0.1691E+07
  0.7790E+06
  0.2078E+07
  0.6000E+06
  0.8038E+08
  0.8540E+08
  0.1520E+07
  0.1953E+05
  0.5430E+08
  0.2620E+07
  0.3565E+08
  0.1401E+08
  0.2681E+07
  0.1245E+08
  0.4300E+07
  0.1813E+07
  0.7771E+07
  0.3899E+07
  0.3294E+08
  0.2388E+07
  0.1811E+08
  0.3573E+07
  0.2617E+08
  0.3064E+07
  0.7090E+07
  0.3911E+07
  0.2905E+07
  0.7155E+07
  0.2476E+08
  0.2390E+07
  0.1478E+08
  0.1112E+08
  0.2520E+07
  0.7842E+07
  0.1680E+08
  0.4180E+08
  0.4437E+08
  0.1505E+07
  0.1164E+05
  0.7445E+08
  0.1139E+08
  0.9752E+06
  0.3275E+07
  0.1013E+08
  0.5339E+07
  0.1580E+08
  0.5855E+07
  0.1879E+08
  0.1310E+07
  0.2014E+07
  0.1132E+08
  0.4406E+07
  0.6763E+07
  0.3045E+07
  0.4743E+07
  0.3639E+07
  0.1487E+08
  0.3353E+07
  0.1822E+08
  0.8811E+06
  0.2569E+07
  0.2089E+08
  0.5934E+07
  0.3876E+07
  0.2000E+07
  0.2522E+07
  0.2043E+08
  0.2696E+07
  0.1137E+08
  0.1559E+08
  0.2529E+05
  0.3013E+07
  0.7802E+06
  0.9470E+07
  0.1504E+07
  0.1968E+07
  0.9858E+07
  0.2239E+07
  0.2772E+07
  0.2820E+08
  0.4733E+07
  0.1033E+08
  0.2083E+07
  0.2267E+08
  0.4621E+07
  0.3672E+07
  0.3976E+07
  0.2038E+08
  0.1319E+07
  0.2224E+07
  0.2592E+08
  0.2990E+07
  0.5238E+07
  0.2858E+07
  0.1841E+08
  0.1020E+08
  0.2115E+07
  0.2705E+07
  0.1400E+08
  0.4606E+07
  0.5826E+07
  0.1182E+05
  0.3262E+05
  0.5432E+08
  0.1452E+07
  0.5609E+07
  0.2624E+07
  0.4959E+07
  0.1328E+08
  0.7434E+07
  0.3537E+07
  0.1760E+07
  0.1402E+08
  0.5330E+07
  0.2589E+07
  0.3523E+07
  0.1374E+07
  0.8179E+07
  0.2132E+07
  0.4761E+07
  0.2736E+07
  0.2120E+07
  0.3815E+07
  0.1891E+07
  0.7141E+07
  0.1438E+08
  0.3393E+07
  0.2361E+07
  0.1679E+07
  0.6640E+06
  0.3900E+07
  0.8256E+06
  0.9296E+07
  0.6177E+08
  0.1519E+07
  0.3106E+08
  0.1870E+08
  0.6302E+07
  0.2608E+07
  0.2660E+08
  0.3213E+07
  0.1220E+08
  0.3827E+08
  0.3292E+08
  0.7543E+07
  0.1386E+07
  0.2440E+07
  0.1886E+08
  0.1887E+07
  0.9967E+07
  0.3982E+07
  0.1078E+08
  0.1525E+08
  0.4255E+07
  0.1337E+08
  0.1735E+07
  0.6501E+07
  0.5268E+07
  0.6451E+07
  0.2321E+07
  0.6272E+07
  0.1958E+08
  0.3443E+07
  0.1175E+05
  0.3276E+05
  0.1516E+07
  0.2552E+08
  0.8464E+06
  0.1177E+08
  0.2364E+07
  0.6457E+06
  0.3528E+08
  0.4058E+07
  0.4558E+08
  0.5010E+07
  0.6881E+06
  0.7507E+07
  0.1545E+07
  0.3209E+08
  0.2031E+08
  0.2069E+07
  0.4528E+07
  0.2420E+08
  0.1303E+08
  0.3175E+07
  0.3610E+07
  0.2121E+07
  0.1703E+07
  0.3296E+07
  0.1153E+08
  0.7083E+06
  0.1196E+07
  0.4165E+07
  0.3782E+08
  0.4607E+08
  0.2245E+08
  0.1528E+08
  0.4416E+07
  0.1799E+07
  0.1773E+08
  0.3465E+07
  0.1984E+08
  0.6283E+07
  0.2175E+07
  0.1132E+09
  0.1886E+07
  0.3610E+07
  0.2319E+07
  0.4205E+07
  0.6668E+08
  0.3995E+07
  0.5545E+07
  0.9337E+07
  0.3661E+08
  0.1727E+07
  0.7722E+07
  0.7091E+07
  0.1079E+08
  0.8652E+07
  0.2386E+08
  0.5171E+07
  0.3506E+07
  0.1612E+07
  0.4511E+07
  0.1232E+05
  0.3353E+05
  0.4224E+07
  0.1986E+07
  0.4628E+07
  0.5173E+07
  0.4321E+08
  0.6465E+06
  0.1548E+07
  0.2390E+08
  0.1290E+07
  0.1313E+09
  0.7825E+07
  0.1918E+08
  0.6818E+07
  0.1100E+07
  0.7770E+08
  0.1088E+08
  0.5748E+06
  0.1139E+08
  0.7372E+08
  0.2363E+07
  0.9021E+06
  0.1985E+08
  0.3852E+07
  0.1479E+08
  0.7184E+06
  0.3899E+08
  0.8629E+06
  0.9604E+07
  0.3517E+07
  0.2290E+07
  0.7435E+04
  0.1626E+08
  0.3110E+07
  0.1098E+08
  0.9278E+06
  0.5731E+08
  0.8341E+06
  0.3741E+07
  0.3847E+07
  0.7926E+08
  0.1488E+08
  0.2474E+07
  0.1376E+09
  0.3008E+08
  0.2750E+08
  0.2273E+08
  0.1647E+07
  0.9964E+07
  0.8459E+08
  0.7530E+06
  0.2803E+08
  0.1869E+07
  0.9493E+08
  0.1764E+07
  0.3649E+07
  0.2295E+08
  0.1638E+08
  0.2978E+07
  0.4347E+08
  0.2478E+07
  0.6395E+07
  0.2282E+08
  0.6578E+07