# vtk DataFile Version 3.0
rivers
ASCII
DATASET UNSTRUCTURED_GRID
POINTS       1986 float
           0.000           0.000           0.000
        1600.000           0.000           0.000
        3200.000           0.000           0.000
        4800.000           0.000           0.000
        6400.000           0.000           0.000
        8000.000           0.000           0.000
        9600.000           0.000           0.000
       11200.000           0.000           0.000
       12800.000           0.000           0.000
       14400.001           0.000           0.000
       16000.000           0.000           0.000
       17600.000           0.000           0.000
       19200.000           0.000           0.000
       20799.999           0.000           0.000
       22400.000           0.000           0.000
       24000.001           0.000           0.000
       25599.999           0.000           0.000
       27200.000           0.000           0.000
       28800.001           0.000           0.000
       30400.000           0.000           0.000
       32000.000           0.000           0.000
       33599.999           0.000           0.000
       35200.000           0.000           0.000
       36800.001           0.000           0.000
       38399.999           0.000           0.000
       40000.000           0.000           0.000
       41599.998           0.000           0.000
       43200.002           0.000           0.000
       44800.000           0.000           0.000
       46399.999           0.000           0.000
       48000.002           0.000           0.000
       49600.000           0.000           0.000
       51199.999           0.000           0.000
       52800.002           0.000           0.000
       54400.001           0.000           0.000
       55999.999           0.000           0.000
       57600.002           0.000           0.000
       59200.001           0.000           0.000
       60799.999           0.000           0.000
       62399.998           0.000           0.000
       64000.001           0.000           0.000
       65599.999           0.000           0.000
       67199.998           0.000           0.000
       68800.001           0.000           0.000
       70400.000           0.000           0.000
       71999.998           0.000           0.000
       73600.001           0.000           0.000
       75200.000           0.000           0.000
       76799.998           0.000           0.000
       78400.002           0.000           0.000
       80000.000           0.000           0.000
           0.000        1600.000           0.000
        1820.535        1836.129         169.455
        4436.497        1560.645         221.322
        8231.839        1585.959         185.601
       11192.297        1979.624         161.112
       14535.388        1860.001          89.091
       17224.315        1919.917         290.230
       20899.237        1802.853         254.165
       23731.335        1792.943         192.280
       27507.238        1603.221         199.361
       30065.602        1613.570         355.203
       33371.579        1994.991          93.795
       37099.539        1414.823         298.935
       38196.713        1837.356         107.599
       41840.942        1855.796         259.011
       43418.644        1867.336         106.930
       46734.950        1319.882         360.285
       49975.028        1831.460         408.252
       52954.322        1538.422         165.528
       55816.240        1531.934         170.480
       59004.449        1641.677          75.662
       60471.826        1510.939         257.821
       63784.513        1656.536         318.120
       67301.210        1771.228         138.706
       70381.695        1920.216         296.009
       72217.113        1448.806         101.152
       75069.462        1621.662         169.600
       78696.327        1722.356         232.622
       80000.000        1600.000           0.000
           0.000        3200.000           0.000
        3274.399        3217.174         403.062
        5160.666        3300.186         332.995
        6043.012        3262.445         154.470
        9502.865        3552.908         402.737
       11056.006        2840.019         259.224
       14606.628        2840.755         131.296
       17562.634        3511.308         276.784
       18833.142        3539.080         121.608
       22026.411        2868.051         260.103
       25600.029        2863.835         156.911
       27192.156        3106.980         409.410
       30375.600        2888.881         346.305
       33224.678        2857.386         143.798
       36841.038        3085.085         210.508
       40238.304        3524.647         195.323
       43557.179        3128.631         172.684
       46228.872        2830.415         196.153
       48146.017        3166.706         327.097
       51153.215        2952.745         167.187
       53124.514        2981.904         361.445
       56001.007        3429.944         493.129
       59307.581        3225.477         150.364
       62124.444        3154.870         257.446
       64132.610        2904.590         157.866
       67439.924        3451.420         537.117
       68998.763        3472.006         295.206
       72219.436        2879.026         174.979
       75532.535        3132.944         436.081
       78652.387        3551.841         173.606
       80000.000        3200.000           0.000
           0.000        4800.000           0.000
        1400.060        4439.660         184.391
        4786.648        4655.285         577.983
        8308.484        5116.135         653.476
       11454.778        4403.585         524.124
       14098.429        4923.032         327.365
       17912.789        5043.475         259.715
       20446.875        4859.061         239.228
       24108.597        4895.159         605.818
       27234.832        4431.193         526.546
       28696.423        4449.033         723.836
       32196.694        4589.490         355.983
       33867.228        4797.771         576.559
       34933.129        4760.558         632.522
       38067.139        5053.208         436.584
       41605.852        4581.133         444.884
       44854.687        5021.321         524.817
       48175.269        4416.823         584.412
       51163.202        5122.950         448.409
       54186.876        4703.411         712.815
       56317.818        4828.699         597.180
       59169.326        5108.954         300.435
       62536.999        4516.819         347.196
       65848.099        4445.450         460.578
       68694.276        4766.024         486.482
       71946.222        4752.098         377.734
       75433.121        5067.460         608.254
       78033.243        4664.320         190.414
       80000.000        4800.000           0.000
           0.000        6400.000           0.000
        2841.623        6773.290         229.983
        6245.685        6376.243         590.778
        7744.385        6030.238         587.225
       11368.686        6592.994         733.032
       14270.010        6704.916         581.132
       17330.427        6370.488         514.502
       19571.144        6573.041         507.554
       22641.152        6627.002         701.018
       23763.572        6012.529         713.053
       27463.089        6427.221         800.239
       30273.002        6504.167         752.295
       33884.178        6077.220         720.579
       35390.886        6255.305         670.080
       38075.664        6205.118         721.615
       40048.604        6389.405         506.337
       43255.311        6307.072         605.359
       46126.564        6231.346         727.336
       48285.057        6596.744         800.147
       51294.080        6157.575         731.808
       54250.249        6543.358         791.013
       57921.865        6224.397         563.862
       59558.312        6004.572         408.644
       62425.662        6132.109         502.342
       65724.696        6341.122         666.852
       68956.079        6674.843         800.461
       72380.520        6490.972         642.273
       75318.037        6459.550         620.750
       78160.955        6114.578         194.014
       80000.000        6400.000           0.000
           0.000        8000.000           0.000
        3576.129        8217.635         194.946
        5061.593        7652.754         304.814
        8105.944        7856.844         753.877
       11121.498        7830.817         789.368
       14531.786        8256.985         800.192
       16036.950        7761.051         800.311
       19087.239        8020.414         800.475
       22626.171        7850.784         800.573
       25653.785        8135.625         800.429
       28733.316        8014.857         800.239
       30647.917        7622.140         800.239
       31669.813        8123.016         800.239
       35544.551        8083.612         774.560
       38771.621        7743.567         800.324
       41941.639        8315.419         800.302
       44649.095        8053.831         800.173
       48005.993        8300.872         800.147
       51584.272        8303.210         800.318
       52951.115        7723.006         800.318
       55834.828        8389.314         800.318
       58839.904        7674.993         605.564
       60484.772        8202.290         737.789
       63784.723        8145.830         711.285
       67326.420        8175.747         800.461
       68571.734        8073.207         800.461
       72193.925        8373.058         792.115
       73714.578        7878.720         722.390
       77044.523        8185.581         216.514
       78448.742        7636.455         111.470
       80000.000        8000.000           0.000
           0.000        9600.000           0.000
[...]
POINT_DATA       1986
SCALARS discharge float 1
LOOKUP_TABLE default
  0.1004E+05
  0.1905E+07
  0.1315E+08
  0.1984E+07
  0.3233E+08
  0.1212E+07
  0.2619E+08
  0.1388E+07
  0.3187E+07
  0.1315E+07
  0.4232E+08
  0.2336E+07
  0.4454E+08
  0.1460E+07
  0.1731E+08
  0.2131E+07
  0.2489E+08
  0.1863E+07
  0.6856E+07
  0.1401E+07
  0.4881E+08
  0.2075E+07
  0.4658E+07
  0.1175E+07
  0.1823E+07
  0.5613E+08
  0.2107E+07
  0.4574E+07
  0.4314E+08
  0.1948E+07
  0.8542E+07
  0.2656E+07
  0.2218E+08
  0.1657E+07
  0.1716E+08
  0.1045E+07
  0.5223E+08
  0.3425E+07
  0.1794E+07
  0.8251E+07
  0.1153E+07
  0.4949E+08
  0.1058E+07
  0.1696E+08
  0.2920E+08
  0.8504E+06
  0.1931E+07
  0.1018E+07
  0.1130E+08
  0.1127E+07
  0.7239E+04
  0.3326E+05
  0.6978E+07
  0.2991E+07
  0.4950E+07
  0.1050E+08
  0.3697E+08
  0.1666E+07
  0.2673E+07
  0.5385E+07
  0.3947E+07
  0.1043E+07
  0.3035E+08
  0.1726E+07
  0.3124E+08
  0.2254E+07
  0.2268E+08
  0.4501E+06
  0.7448E+06
  0.1463E+08
  0.8896E+07
  0.4027E+08
  0.1664E+07
  0.8044E+06
  0.1460E+08
  0.1301E+07
  0.2698E+08
  0.8141E+07
  0.2553E+07
  0.7643E+04
  0.3258E+05
  0.2020E+07
  0.3738E+07
  0.2242E+08
  0.4485E+07
  0.7589E+07
  0.3253E+08
  0.2682E+07
  0.3757E+08
  0.4228E+07
  0.1663E+08
  0.2750E+07
  0.9253E+07
  0.2357E+08
  0.2579E+08
  0.1887E+08
  0.2031E+08
  0.1465E+08
  0.2367E+07
  0.1821E+08
  0.1157E+08
  0.2433E+07
  0.3550E+08
  0.3895E+07
  0.2753E+08
  0.7688E+06
  0.1003E+08
  0.2366E+08
  0.2312E+07
  0.4614E+07
  0.2568E+07
  0.1909E+05
  0.6501E+07
  0.1409E+07
  0.7259E+06
  0.4792E+07
  0.1863E+08
  0.9283E+07
  0.2067E+08
  0.1244E+07
  0.4162E+07
  0.3004E+07
  0.1896E+08
  0.1165E+07
  0.1301E+07
  0.4434E+07
  0.1404E+07
  0.2681E+07
  0.2250E+07
  0.1116E+08
  0.6481E+07
  0.5596E+07
  0.2188E+08
  0.1979E+08
  0.9253E+07
  0.6322E+07
  0.1216E+08
  0.1049E+07
  0.4497E+07
  0.1512E+08
  0.1526E+08
  0.5021E+07
  0.2375E+07
  0.1011E+08
  0.5169E+07
  0.3687E+07
  0.3205E+07
  0.6152E+07
  0.2015E+07
  0.2581E+07
  0.2298E+07
  0.2483E+07
  0.6020E+07
  0.1206E+08
  0.3047E+07
  0.1132E+08
  0.5208E+07
  0.2685E+07
  0.1380E+08
  0.3683E+07
  0.2987E+07
  0.4293E+07
  0.1369E+08
  0.1521E+08
  0.5500E+07
  0.1489E+07
  0.3403E+07
  0.1708E+07
  0.5981E+07
  0.1894E+08
  0.1775E+08
  0.1345E+08
  0.1091E+08
  0.4315E+07
  0.3079E+07
  0.1940E+07
  0.2315E+07
  0.6255E+07
  0.9820E+07
  0.2720E+07
  0.1364E+08
  0.3450E+08
  0.8477E+07
  0.8369E+07
  0.2402E+07
  0.1331E+07
  0.1229E+08
  0.4166E+07
  0.1395E+07
  0.2983E+07
  0.3424E+07
  0.8602E+07
  0.3346E+07
  0.6353E+07
  0.2508E+07
  0.6412E+07
  0.2155E+07
  0.5737E+07
  0.1600E+08
  0.1892E+08
  0.2126E+07
  0.3261E+05
  0.1401E+08
  0.3312E+07
  0.3048E+07
  0.1068E+08
  0.1172E+08
  0.2096E+07
  0.3101E+07
  0.9372E+07
  0.1905E+08
  0.4258E+07
  0.8891E+07
  0.2795E+07
  0.2286E+07
  0.1470E+08
  0.2693E+07
  0.1051E+08
  0.3922E+07
  0.4595E+07
  0.7058E+07
  0.2423E+08
  0.6213E+07
  0.3110E+07
  0.3205E+07
  0.2201E+07
  0.2805E+07
  0.2088E+08
  0.2000E+07
  0.2299E+07
  0.2110E+07
  0.1256E+05
  0.2211E+08
  0.2782E+07
  0.1766E+07
  0.2855E+08
  0.2468E+07
  0.2238E+08
  0.3366E+07
  0.8984E+07
  0.2860E+07
  0.4185E+07
  0.5883E+07
  0.3273E+07
  0.3713E+07
  0.3247E+08
  0.5118E+07
  0.2199E+07
  0.1917E+08
  0.3148E+07
  0.2643E+07
  0.2222E+07
  0.8395E+07
  0.1344E+08
  0.4165E+08
  0.6106E+07
  0.1994E+08
  0.3026E+07
  0.3191E+07
  0.2114E+08
  0.1544E+07
  0.2515E+07
  0.9748E+07
  0.9830E+04
  0.1655E+08
  0.8339E+06
  0.2130E+07
  0.2695E+07
  0.1441E+08
  0.2580E+08
  0.1196E+08
  0.2902E+07
  0.2022E+07
  0.1479E+08
  0.3011E+08
  0.2954E+07
  0.1711E+08
  0.3952E+07
  0.1678E+08
  0.6601E+07
  0.2502E+07
  0.3568E+07
  0.2009E+08
  0.3024E+07
  0.4706E+07
  0.2738E+08
  0.3696E+07
  0.5034E+07
  0.1078E+08
  0.4347E+07
  0.2433E+07
  0.3317E+07
  0.3626E+07
  0.1293E+08
  0.7767E+07
  0.1215E+08
  0.1455E+08
  0.2803E+08
  0.1793E+05
  0.1178E+08
  0.8710E+07
  0.5890E+07
  0.8468E+07
  0.3088E+07
  0.3444E+07
  0.4443E+07
  0.1390E+08
  0.3316E+07
  0.2093E+07
  0.8670E+07
  0.5019E+08
  0.2256E+07
  0.4454E+07
  0.1405E+08
  0.2257E+07
  0.4309E+07
  0.6512E+07
  0.1371E+08
  0.2505E+08
  0.1464E+08
  0.3832E+07
  0.3741E+07
  0.3716E+07
  0.8465E+07
  0.2715E+07
  0.2605E+07
  0.3299E+07
  0.8130E+07
  0.3096E+08
  0.2072E+08
  0.4566E+07
  0.4551E+07
  0.5339E+07
  0.3119E+07
  0.3015E+08
  0.3338E+07
  0.7456E+07
  0.3896E+07
  0.9910E+07
  0.3270E+07
  0.1491E+08
  0.1026E+08
  0.4569E+07
  0.1579E+07
  0.7174E+07
  0.3553E+07
  0.3169E+07
  0.1655E+08
  0.3637E+07
  0.2996E+07
  0.4257E+07
  0.9266E+07
  0.5987E+07
  0.2712E+08
  0.6157E+07
  0.2526E+07
  0.6615E+07
  0.2386E+07
  0.1299E+05
  0.1879E+05
  0.3473E+07
  0.6071E+07
  0.1536E+07
  0.1725E+08
  0.8877E+07
  0.4662E+08
  0.3037E+07
  0.2544E+08
  0.1043E+08
  0.2749E+07
  0.4616E+07
  0.8181E+07
  0.3548E+07
  0.2693E+07
  0.2056E+08
  0.2328E+07
  0.2418E+07
  0.1171E+08
  0.4351E+07
  0.5378E+07
  0.4078E+07
  0.2781E+08
  0.3411E+08
  0.3034E+07
  0.4133E+07
  0.8227E+07
  0.4654E+07
  0.3238E+08
  0.3607E+08
  0.3165E+05
  0.1252E+07
  0.1061E+08
  0.6270E+07
  0.1395E+08
  0.2703E+07
  0.1146E+08
  0.1550E+08
  0.4828E+07
  0.1015E+08
  0.5059E+07
  0.3814E+07
  0.5298E+07
  0.1395E+08
  0.2475E+08
  0.3225E+07
  0.1247E+08
  0.2376E+07
  0.2106E+08
  0.4286E+07
  0.3707E+07
  0.2041E+07
  0.1013E+08
  0.1491E+08
  0.2539E+07
  0.4867E+07
  0.1699E+08
  0.9377E+07
  0.2726E+07
  0.6456E+07
  0.4412E+08
  0.3387E+08
  0.8112E+07
  0.3182E+07
  0.1828E+08
  0.2523E+07
  0.7803E+07
  0.8268E+07
  0.4240E+07
  0.5615E+08
  0.9279E+07
  0.7235E+07
  0.1348E+08
  0.6224E+07
  0.1773E+07
  0.1766E+07
  0.1209E+07
  0.8941E+07
  0.4681E+07
  0.2023E+08
  0.5080E+07
  0.1105E+08
  0.3735E+07
  0.2702E+07
  0.2185E+07
  0.2650E+08
  0.1935E+07
  0.3477E+07
  0.1192E+07
  0.2510E+07
  0.1670E+08
  0.3071E+05
  0.2358E+07
  0.5519E+07
  0.2005E+07
  0.4832E+07
  0.7960E+07
  0.2865E+08
  0.2378E+07
  0.3992E+07
  0.2095E+08
  0.1985E+07
  0.2073E+07
  0.5667E+07
  0.1585E+08
  0.2663E+07
  0.1497E+08
  0.1232E+08
  0.1184E+08
  0.1928E+07
  0.2566E+07
  0.2066E+07
  0.4687E+07
  0.3284E+07
  0.1758E+08
  0.1948E+07
  0.1300E+08
  0.5694E+07
  0.3351E+07
  0.6872E+07
  0.1668E+08
  0.2691E+07
  0.1226E+08
  0.8690E+07
  0.3525E+07
  0.1686E+07
  0.2747E+08
  0.3161E+07
  0.2843E+07
  0.1018E+08
  0.4781E+07
  0.8050E+07
  0.5672E+07
  0.1862E+08
  0.3738E+07
  0.4879E+07
  0.2284E+08
  0.3364E+07
  0.1276E+08
  0.1517E+07
  0.3847E+07
  0.1209E+08
  0.1993E+07
  0.1225E+08
  0.1627E+08
  0.6375E+07
  0.3218E+07
  0.4852E+07
  0.2880E+07
  0.4289E+07
  0.1840E+07
  0.4203E+07
  0.2676E+07
  0.7292E+04
  0.1395E+08
  0.1078E+08
  0.4128E+07
  0.5402E+07
  0.7942E+07
  0.4065E+07
  0.1257E+08
  0.3107E+07
  0.2187E+07
  0.1086E+08
  0.2836E+07
  0.5282E+08
  0.1125E+08
  0.1744E+07
  0.4626E+07
  0.4597E+08
  0.4330E+07
  0.3541E+07
  0.2275E+08
  0.2196E+07
  0.3963E+07
  0.2443E+07
  0.2660E+08
  0.2919E+07
  0.2011E+08
  0.8491E+07
  0.4406E+07
  0.4580E+07
  0.4132E+07
  0.1186E+08
  0.2479E+08
  0.1138E+05
  0.1782E+08
  0.1442E+08
  0.4884E+07
  0.2504E+07
  0.1250E+08
  0.2082E+07
  0.2226E+08
  0.5403E+07
  0.6845E+07
  0.2481E+07
  0.3454E+07
  0.6642E+07
  0.1013E+08
  0.6985E+07
  0.9227E+07
  0.3616E+07
  0.3792E+07
  0.2279E+07
  0.3867E+07
  0.2303E+08
  0.5685E+07
  0.3915E+07
  0.9533E+07
  0.2159E+07
  0.2293E+07
  0.1240E+08
  0.1349E+08
  0.1785E+07
  0.5244E+07
  0.3831E+08
  0.4130E+07
  0.1381E+07
  0.9774E+07
  0.4856E+07
  0.4257E+08
  0.5612E+07
  0.1217E+08
  0.2662E+08
  0.7786E+07
  0.2838E+08
  0.3056E+07
  0.4851E+07
  0.1989E+08
  0.3173E+07
  0.1506E+08
  0.2602E+08
  0.1205E+08
  0.2990E+07
  0.1987E+07
  0.1267E+08
  0.1047E+08
  0.3050E+08
  0.4636E+07
  0.4311E+07
  0.2008E+07
  0.9312E+07
  0.2848E+07
  0.8416E+07
  0.7554E+04
  0.3028E+07
  0.1042E+07
  0.1796E+08
  0.2538E+07
  0.2052E+07
  0.1089E+08
  0.3049E+07
  0.3412E+07
  0.5938E+07
  0.3974E+07
  0.5445E+07
  0.5497E+07
  0.3508E+07
  0.3058E+07
  0.5633E+07
  0.3041E+07
  0.9527E+07
  0.3142E+07
  0.3548E+07
  0.8198E+07
  0.4963E+07
  0.7957E+07
  0.6799E+07
  0.2484E+08
  0.4555E+08
  0.1401E+08
  0.2693E+07
  0.6316E+07
  0.9160E+06
  0.4036E+07
  0.8377E+07
  0.4650E+08
  0.4246E+08
  0.1773E+08
  0.3273E+07
  0.6491E+07
  0.7729E+07
  0.9925E+07
  0.9903E+07
  0.1444E+08
  0.2525E+07
  0.4408E+07
  0.1548E+08
  0.7037E+07
  0.2030E+07
  0.9965E+07
  0.2218E+07
  0.1710E+08
  0.3568E+07
  0.1931E+08
  0.3692E+07
  0.2552E+08
  0.8043E+07
  0.3473E+08
  0.2415E+07
  0.1767E+08
  0.3281E+07
  0.7765E+07
  0.1272E+08
  0.1357E+08
  0.1142E+08
  0.2166E+07
  0.8704E+04
  0.2124E+05
  0.4625E+07
  0.6752E+07
  0.2342E+07
  0.3099E+08
  0.7458E+07
  0.2554E+07
  0.2105E+07
  0.1522E+08
  0.2969E+07
  0.3315E+08
  0.2399E+07
  0.2109E+07
  0.1842E+08
  0.4236E+07
  0.2866E+07
  0.5933E+07
  0.5061E+07
  0.7390E+07
  0.1260E+08
  0.4240E+07
  0.6728E+07
  0.1097E+08
  0.3644E+07
  0.4624E+07
  0.3697E+07
  0.2795E+07
  0.9568E+07
  0.3326E+08
  0.3516E+08
  0.2141E+08
  0.1149E+08
  0.4931E+07
  0.2178E+07
  0.2710E+07
  0.2915E+07
  0.9297E+07
  0.1709E+08
  0.6975E+07
  0.1265E+08
  0.3890E+07
  0.9130E+07
  0.2469E+08
  0.5000E+07
  0.2430E+07
  0.8884E+07
  0.2966E+08
  0.4826E+07
  0.4257E+07
  0.3065E+07
  0.6124E+07
  0.9655E+07
  0.4646E+07
  0.4392E+07
  0.2938E+07
  0.2247E+07
  0.4985E+07
  0.5939E+07
  0.3265E+07
  0.1871E+07
  0.1201E+05
  0.3416E+05
  0.1256E+07
  0.3387E+07
  0.6543E+07
  0.5896E+07
  0.2029E+07
  0.1439E+08
  0.2294E+07
  0.3276E+07
  0.2537E+07
  0.1693E+08
  0.3615E+07
  0.6840E+07
  0.1788E+08
  0.2808E+07
  0.6443E+07
  0.4404E+07
  0.3869E+07
  0.7846E+07
  0.2330E+08
  0.5469E+07
  0.1682E+08
  0.1739E+08
  0.1624E+08
  0.2002E+08
  0.3194E+07
  0.6639E+07
  0.8301E+07
  0.1979E+08
  0.8077E+04
  0.3084E+08
  0.2659E+08
  0.1362E+08
  0.2452E+08
  0.1182E+08
  0.6592E+07
  0.4553E+07
  0.1291E+08
  0.1822E+08
  0.9304E+07
  0.3219E+07
  0.4076E+07
  0.6012E+07
  0.3468E+07
  0.1263E+08
  0.1164E+08
  0.2759E+07
  0.2141E+08
  0.3422E+08
  0.4881E+07
  0.3436E+07
  0.3159E+07
  0.4231E+07
  0.3515E+07
  0.2841E+07
  0.4330E+07
  0.2587E+07
  0.1400E+08
  0.2836E+08
  0.2642E+08
  0.1901E+08
  0.7028E+07
  0.6376E+07
  0.3497E+07
  0.1570E+08
  0.2691E+07
  0.7159E+07
  0.4926E+07
  0.2544E+07
  0.2337E+08
  0.6204E+07
  0.8258E+07
  0.1041E+08
  0.2903E+07
  0.4866E+07
  0.3230E+08
  0.9435E+07
  0.3924E+07
  0.2829E+07
  0.5046E+07
  0.3151E+07
  0.1996E+08
  0.2870E+07
  0.4769E+07
  0.2450E+07
  0.6995E+07
  0.2450E+07
  0.1495E+07
  0.3080E+07
  0.8538E+07
  0.1018E+08
  0.5318E+07
  0.1811E+07
  0.4569E+07
  0.3992E+07
  0.1746E+07
  0.3238E+08
  0.4939E+08
  0.3239E+08
  0.2085E+08
  0.1792E+08
  0.1142E+08
  0.4504E+07
  0.3580E+07
  0.2290E+07
  0.1772E+08
  0.6846E+07
  0.7644E+07
  0.3461E+07
  0.2164E+08
  0.3371E+07
  0.1543E+08
  0.4086E+07
  0.9983E+07
  0.2417E+08
  0.4187E+07
  0.1754E+08
  0.3355E+07
  0.8620E+07
  0.1674E+07
  0.9261E+07
  0.9672E+04
  0.3061E+05
  0.5272E+07
  0.2347E+07
  0.9439E+07
  0.8524E+07
  0.1115E+08
  0.6012E+07
  0.6564E+07
  0.2173E+07
  0.1665E+08
  0.2960E+07
  0.6014E+07
  0.7085E+07
  0.4333E+07
  0.3634E+08
  0.2182E+07
  0.2101E+07
  0.3253E+07
  0.5853E+07
  0.3160E+07
  0.1636E+08
  0.3206E+07
  0.6415E+07
  0.5392E+07
  0.2728E+07
  0.9222E+06
  0.8044E+07
  0.1966E+07
  0.1686E+08
  0.1578E+07
  0.1323E+05
  0.2660E+08
  0.2120E+08
  0.2609E+07
  0.1418E+08
  0.2229E+07
  0.4034E+07
  0.2370E+07
  0.2954E+08
  0.7109E+07
  0.2865E+07
  0.6240E+07
  0.2034E+08
  0.6326E+07
  0.1761E+08
  0.3944E+07
  0.4996E+07
  0.5185E+07
  0.7790E+07
  0.2868E+07
  0.1116E+08
  0.8606E+07
  0.1109E+08
  0.3639E+08
  0.1400E+08
  0.2225E+07
  0.5136E+07
  0.1597E+08
  0.1220E+07
  0.1077E+08
  0.8753E+07
  0.4268E+08
  0.4511E+08
  0.5071E+08
  0.2931E+05
  0.2998E+08
  0.1226E+08
  0.3593E+07
  0.2530E+07
  0.1599E+08
  0.4735E+07
  0.1226E+08
  0.4143E+07
  0.3563E+07
  0.1559E+08
  0.3507E+07
  0.3342E+07
  0.6360E+08
  0.4752E+07
  0.1858E+08
  0.7712E+07
  0.2912E+08
  0.8381E+07
  0.1004E+08
  0.3080E+07
  0.3973E+07
  0.3376E+07
  0.2038E+07
  0.4647E+07
  0.3079E+07
  0.7276E+07
  0.2733E+07
  0.5213E+07
  0.5640E+07
  0.1211E+08
  0.9045E+07
  0.1534E+08
  0.3002E+08
  0.1088E+08
  0.3651E+07
  0.7404E+07
  0.2302E+07
  0.2109E+08
  0.5585E+07
  0.3534E+07
  0.4334E+07
  0.3820E+07
  0.1251E+08
  0.3002E+08
  0.3478E+07
  0.3105E+07
  0.3028E+07
  0.2983E+07
  0.7063E+07
  0.4611E+07
  0.4137E+07
  0.2000E+08
  0.3856E+07
  0.3855E+07
  0.1557E+08
  0.4674E+07
  0.2835E+07
  0.3005E+07
  0.2960E+07
  0.9914E+04
  0.1908E+05
  0.5207E+07
  0.4309E+07
  0.1941E+07
  0.1434E+08
  0.5349E+07
  0.5507E+07
  0.8187E+07
  0.3088E+07
  0.1239E+08
  0.8179E+07
  0.4173E+07
  0.1225E+08
  0.3617E+07
  0.1350E+08
  0.4975E+07
  0.2811E+08
  0.1141E+08
  0.2920E+07
  0.1426E+08
  0.1965E+08
  0.8799E+07
  0.1027E+08
  0.1026E+08
  0.2028E+07
  0.8832E+07
  0.9011E+07
  0.2138E+07
  0.5375E+07
  0.1013E+08
  0.1211E+08
  0.7886E+08
  0.1121E+08
  0.5317E+07
  0.1255E+07
  0.2141E+08
  0.1702E+08
  0.1946E+07
  0.1957E+08
  0.1863E+07
  0.2218E+08
  0.2217E+08
  0.1496E+07
  0.5870E+07
  0.5479E+07
  0.2585E+07
  0.2423E+07
  0.2371E+07
  0.2006E+08
  0.4257E+07
  0.4002E+08
  0.6350E+07
  0.3165E+07
  0.9438E+07
  0.2738E+07
  0.1845E+08
  0.2470E+08
  0.6135E+07
  0.3828E+07
  0.1052E+08
  0.1282E+08
  0.3269E+05
  0.7358E+08
  0.5388E+08
  0.4886E+08
  0.1011E+07
  0.3050E+07
  0.4922E+07
  0.3239E+08
  0.2375E+07
  0.9842E+07
  0.2552E+07
  0.1018E+08
  0.1676E+08
  0.6586E+07
  0.2508E+08
  0.2889E+07
  0.1158E+08
  0.6872E+07
  0.2445E+07
  0.4517E+08
  0.1621E+08
  0.2723E+07
  0.2251E+07
  0.3794E+07
  0.1346E+08
  0.1982E+07
  0.1576E+07
  0.1954E+08
  0.1490E+07
  0.1543E+07
  0.5168E+07
  0.7985E+07
  0.8473E+07
  0.4027E+07
  0.6069E+07
  0.4498E+07
  0.4324E+07
  0.2686E+08
  0.4241E+07
  0.1730E+08
  0.3372E+07
  0.3060E+07
  0.5055E+07
  0.2961E+07
  0.2250E+08
  0.4020E+07
  0.9081E+07
  0.5090E+07
  0.2560E+07
  0.6072E+07
  0.2443E+07
  0.7274E+08
  0.1910E+07
  0.1050E+08
  0.1875E+07
  0.7357E+07
  0.2854E+07
  0.5226E+07
  0.7035E+07
  0.1716E+07
  0.2629E+08
  0.2974E+08
  0.7463E+04
  0.3852E+08
  0.4265E+07
  0.2801E+07
  0.3389E+07
  0.2911E+07
  0.9403E+07
  0.1008E+08
  0.9172E+07
  0.3006E+07
  0.6812E+07
  0.5589E+07
  0.4257E+08
  0.3397E+07
  0.3615E+07
  0.6801E+07
  0.2025E+08
  0.4106E+08
  0.3182E+07
  0.2055E+08
  0.2178E+07
  0.1648E+08
  0.1074E+08
  0.2520E+07
  0.2200E+08
  0.3771E+07
  0.3249E+07
  0.2224E+08
  0.2311E+07
  0.2118E+08
  0.2444E+07
  0.3495E+08
  0.1808E+05
  0.2858E+08
  0.1058E+07
  0.3793E+07
  0.2339E+08
  0.5313E+07
  0.3002E+07
  0.3974E+07
  0.1786E+08
  0.1415E+08
  0.1528E+08
  0.7950E+07
  0.3851E+07
  0.1145E+08
  0.4726E+07
  0.1798E+07
  0.3462E+07
  0.1651E+07
  0.1070E+08
  0.2319E+07
  0.1961E+07
  0.2335E+07
  0.4457E+07
  0.2585E+07
  0.1486E+08
  0.6550E+07
  0.2012E+07
  0.5927E+07
  0.3949E+07
  0.1252E+05
  0.4478E+05
  0.1328E+08
  0.5021E+07
  0.4969E+07
  0.3745E+07
  0.3093E+08
  0.1693E+08
  0.4263E+07
  0.2704E+07
  0.2700E+08
  0.1430E+07
  0.2668E+08
  0.2010E+07
  0.2194E+08
  0.4158E+07
  0.2515E+08
  0.4083E+07
  0.1201E+08
  0.1792E+08
  0.2496E+07
  0.1711E+08
  0.2237E+07
  0.1784E+08
  0.2383E+07
  0.1851E+08
  0.3117E+07
  0.3738E+07
  0.5284E+07
  0.3155E+07
  0.1129E+08
  0.2036E+08
  0.1815E+05
  0.1007E+08
  0.1658E+07
  0.9434E+06
  0.5732E+07
  0.3656E+07
  0.6850E+07
  0.9038E+07
  0.3625E+07
  0.1874E+08
  0.2305E+07
  0.2151E+07
  0.5994E+07
  0.1241E+07
  0.1038E+08
  0.7200E+07
  0.3483E+07
  0.4551E+07
  0.5106E+07
  0.3238E+07
  0.5216E+07
  0.3242E+07
  0.5945E+07
  0.2305E+07
  0.2932E+07
  0.1528E+08
  0.2990E+07
  0.1763E+08
  0.5609E+07
  0.1545E+07
  0.1306E+07
  0.4443E+08
  0.1012E+08
  0.2068E+08
  0.3042E+07
  0.3928E+07
  0.6452E+07
  0.4387E+07
  0.1536E+07
  0.4124E+07
  0.6707E+07
  0.1467E+08
  0.3064E+07
  0.1653E+08
  0.4535E+07
  0.4140E+07
  0.3161E+07
  0.2872E+07
  0.2716E+08
  0.8110E+07
  0.5397E+07
  0.1855E+08
  0.4361E+07
  0.9865E+07
  0.2036E+07
  0.2903E+08
  0.1610E+07
  0.8978E+06
  0.2772E+07
  0.2508E+07
  0.3851E+08
  0.4441E+08
  0.1632E+07
  0.1992E+05
  0.2648E+08
  0.4130E+07
  0.6244E+07
  0.2098E+08
  0.3844E+07
  0.1328E+08
  0.5045E+07
  0.1530E+07
  0.6950E+07
  0.5303E+07
  0.3434E+08
  0.2275E+07
  0.1821E+08
  0.3411E+07
  0.2486E+08
  0.2969E+07
  0.6376E+07
  0.3771E+07
  0.2759E+07
  0.6899E+07
  0.2348E+08
  0.2273E+07
  0.1401E+08
  0.1049E+08
  0.2483E+07
  0.9870E+07
  0.3433E+07
  0.1907E+08
  0.2144E+08
  0.1617E+07
  0.1160E+05
  0.5071E+08
  0.1418E+08
  0.8793E+06
  0.1000E+08
  0.1549E+08
  0.4786E+07
  0.1638E+08
  0.5017E+07
  0.1838E+08
  0.2843E+07
  0.2789E+07
  0.1253E+08
  0.5231E+07
  0.6446E+07
  0.2923E+07
  0.4538E+07
  0.3406E+07
  0.1513E+08
  0.3199E+07
  0.1726E+08
  0.8721E+06
  0.2447E+07
  0.1980E+08
  0.5541E+07
  0.3510E+07
  0.1841E+07
  0.1225E+07
  0.1228E+08
  0.3037E+07
  0.1102E+08
  0.1523E+08
  0.2482E+05
  0.4284E+07
  0.8265E+06
  0.2478E+07
  0.4236E+07
  0.2283E+07
  0.1372E+08
  0.1450E+07
  0.4169E+07
  0.4193E+08
  0.5678E+07
  0.3499E+07
  0.2904E+07
  0.2345E+08
  0.3827E+07
  0.4226E+07
  0.4264E+07
  0.1946E+08
  0.1340E+07
  0.2986E+07
  0.3980E+08
  0.2910E+07
  0.5007E+07
  0.2953E+07
  0.1980E+08
  0.1172E+08
  0.3279E+07
  0.9957E+07
  0.5416E+07
  0.3985E+07
  0.7979E+07
  0.1181E+05
  0.3222E+05
  0.3516E+08
  0.2101E+07
  0.3842E+07
  0.3702E+07
  0.5821E+07
  0.2953E+08
  0.5869E+07
  0.2996E+07
  0.3839E+07
  0.6835E+07
  0.1997E+08
  0.3439E+07
  0.1135E+08
  0.4047E+07
  0.3622E+08
  0.2047E+07
  0.1111E+08
  0.3566E+07
  0.1027E+08
  0.1475E+08
  0.3209E+07
  0.8292E+07
  0.1424E+08
  0.3290E+07
  0.3032E+07
  0.3016E+07
  0.2180E+07
  0.1753E+07
  0.2666E+07
  0.1224E+08
  0.4258E+08
  0.7589E+06
  0.1963E+08
  0.1003E+08
  0.4045E+07
  0.2914E+07
  0.5223E+07
  0.7578E+07
  0.1743E+08
  0.6945E+07
  0.6080E+07
  0.5369E+07
  0.2280E+07
  0.1039E+08
  0.6193E+07
  0.2207E+08
  0.9502E+07
  0.4319E+07
  0.7809E+07
  0.4087E+07
  0.2789E+07
  0.1848E+08
  0.2678E+07
  0.1066E+08
  0.1266E+08
  0.2636E+07
  0.9836E+07
  0.7524E+07
  0.4394E+07
  0.4235E+07
  0.1173E+05
  0.3253E+05
  0.2563E+07
  0.1442E+08
  0.1620E+07
  0.1586E+08
  0.2455E+07
  0.5248E+07
  0.1032E+08
  0.3302E+07
  0.8721E+07
  0.3490E+07
  0.8801E+07
  0.5138E+07
  0.2930E+07
  0.1103E+08
  0.4194E+07
  0.2914E+07
  0.1806E+08
  0.3763E+07
  0.1917E+08
  0.9626E+07
  0.3643E+07
  0.1007E+08
  0.3119E+07
  0.5095E+07
  0.3650E+07
  0.1814E+07
  0.1556E+08
  0.3693E+07
  0.1953E+08
  0.2824E+08
  0.2528E+08
  0.1704E+08
  0.6003E+07
  0.1155E+07
  0.6343E+07
  0.3917E+07
  0.5116E+07
  0.5796E+07
  0.2135E+07
  0.2877E+08
  0.2166E+07
  0.1556E+07
  0.8531E+07
  0.2246E+07
  0.1615E+08
  0.3169E+07
  0.2021E+07
  0.4047E+07
  0.4014E+07
  0.9022E+06
  0.2314E+07
  0.1336E+07
  0.2497E+07
  0.4447E+07
  0.4330E+07
  0.1135E+08
  0.1917E+07
  0.2443E+07
  0.2049E+07
  0.4975E+07
  0.1230E+05
  0.3336E+05
  0.4172E+07
  0.1987E+07
  0.7136E+07
  0.3989E+07
  0.1632E+08
  0.9073E+06
  0.3779E+07
  0.8819E+07
  0.1782E+07
  0.4987E+08
  0.7834E+07
  0.7028E+07
  0.4205E+07
  0.8710E+06
  0.2446E+08
  0.9623E+07
  0.1127E+07
  0.6159E+07
  0.1878E+08
  0.1442E+07
  0.3032E+07
  0.4451E+07
  0.3104E+07
  0.7985E+07
  0.2082E+07
  0.2138E+08
  0.1391E+07
  0.3794E+07
  0.4268E+07
  0.2351E+07
  0.7415E+04
  0.1622E+08
  0.3119E+07
  0.1352E+08
  0.9686E+06
  0.2903E+08
  0.8887E+06
  0.4584E+07
  0.6126E+07
  0.3900E+08
  0.1463E+08
  0.1763E+07
  0.5545E+08
  0.1805E+08
  0.1538E+08
  0.1044E+08
  0.2258E+07
  0.7491E+07
  0.3165E+08
  0.9243E+06
  0.2390E+08
  0.2077E+07
  0.3518E+08
  0.2542E+07
  0.2654E+07
  0.7744E+07
  0.1100E+08
  0.5522E+07
  0.2540E+08