# vtk DataFile Version 3.0
rivers
ASCII
DATASET UNSTRUCTURED_GRID
POINTS       2033 float
           0.000           0.000           0.000
        1600.000           0.000           0.000
        3200.000           0.000           0.000
        4800.000           0.000           0.000
        6400.000           0.000           0.000
        8000.000           0.000           0.000
        9600.000           0.000           0.000
       11200.000           0.000           0.000
       12800.000           0.000           0.000
       14400.001           0.000           0.000
       16000.000           0.000           0.000
       17600.000           0.000           0.000
       19200.000           0.000           0.000
       20799.999           0.000           0.000
       22400.000           0.000           0.000
       24000.001           0.000           0.000
       25599.999           0.000           0.000
       27200.000           0.000           0.000
       28800.001           0.000           0.000
       30400.000           0.000           0.000
       32000.000           0.000           0.000
       33599.999           0.000           0.000
       35200.000           0.000           0.000
       36800.001           0.000           0.000
       38399.999           0.000           0.000
       40000.000           0.000           0.000
       41599.998           0.000           0.000
       43200.002           0.000           0.000
       44800.000           0.000           0.000
       46399.999           0.000           0.000
       48000.002           0.000           0.000
       49600.000           0.000           0.000
       51199.999           0.000           0.000
       52800.002           0.000           0.000
       54400.001           0.000           0.000
       55999.999           0.000           0.000
       57600.002           0.000           0.000
       59200.001           0.000           0.000
       60799.999           0.000           0.000
       62399.998           0.000           0.000
       64000.001           0.000           0.000
       65599.999           0.000           0.000
       67199.998           0.000           0.000
       68800.001           0.000           0.000
       70400.000           0.000           0.000
       71999.998           0.000           0.000
       73600.001           0.000           0.000
       75200.000           0.000           0.000
       76799.998           0.000           0.000
       78400.002           0.000           0.000
       80000.000           0.000           0.000
           0.000        1600.000           0.000
        1820.535        1836.129         171.772
        4436.497        1560.645         224.779
        8231.839        1585.959         188.790
       11192.297        1979.624         145.659
       14535.388        1860.001          76.240
       17224.315        1919.917         307.890
       20899.237        1802.853         262.396
       23731.335        1792.943         193.493
       27507.238        1603.221         203.824
       30065.602        1613.570         376.815
       33371.579        1994.991          65.733
       37099.539        1414.823         317.025
       38196.713        1837.356          94.771
       41840.942        1855.796         275.546
       43418.644        1867.336          97.448
       49975.028        1831.460         391.988
       52954.322        1538.422         134.793
       55816.240        1531.934         166.362
       59004.449        1641.677          68.265
       60471.826        1510.939         272.402
       63784.513        1656.536         309.274
       67301.210        1771.228         128.397
       70381.695        1920.216         300.095
       72217.113        1448.806          93.616
       75069.462        1621.662         165.210
       78696.327        1722.356         237.575
       80000.000        1600.000           0.000
           0.000        3200.000           0.000
        3274.399        3217.174         419.015
        5160.666        3300.186         305.135
        6043.012        3262.445         136.499
        9502.865        3552.908         364.316
       11056.006        2840.019         223.392
       14606.628        2840.755         111.478
       17562.634        3511.308         273.145
       18833.142        3539.080         104.816
       22026.411        2868.051         260.943
       25600.029        2863.835         132.017
       27192.156        3106.980         385.949
       30375.600        2888.881         276.798
       33224.678        2857.386          97.385
       36841.038        3085.085         181.219
       40238.304        3524.647         161.208
       43557.179        3128.631         156.787
       46228.872        2830.415         167.160
       48146.017        3166.706         333.649
       51153.215        2952.745         121.575
       53124.514        2981.904         275.286
       56001.007        3429.944         470.411
       59307.581        3225.477         127.335
       62124.444        3154.870         272.007
       64132.610        2904.590         134.594
       67439.924        3451.420         541.715
       68998.763        3472.006         238.742
       72219.436        2879.026         158.688
       75532.535        3132.944         411.606
       78652.387        3551.841         172.832
       80000.000        3200.000           0.000
           0.000        4800.000           0.000
        1400.060        4439.660         183.780
        4786.648        4655.285         570.271
        8308.484        5116.135         648.535
       11454.778        4403.585         455.952
       14098.429        4923.032         245.409
       17912.789        5043.475         224.865
       20446.875        4859.061         204.318
       24108.597        4895.159         566.172
       27234.832        4431.193         436.982
       28696.423        4449.033         676.965
       32196.694        4589.490         217.632
       33867.228        4797.771         565.531
       34933.129        4760.558         599.505
       38067.139        5053.208         431.854
       41605.852        4581.133         431.323
       44854.687        5021.321         504.758
       48175.269        4416.823         524.188
       51163.202        5122.950         302.271
       54186.876        4703.411         605.081
       56317.818        4828.699         524.089
       59169.326        5108.954         237.593
       62536.999        4516.819         282.132
       65848.099        4445.450         392.141
       68694.276        4766.024         396.226
       71946.222        4752.098         315.269
       75433.121        5067.460         610.116
       78033.243        4664.320         189.130
       80000.000        4800.000           0.000
           0.000        6400.000           0.000
        2841.623        6773.290         231.527
        6245.685        6376.243         566.494
        7744.385        6030.238         469.745
       11368.686        6592.994         653.815
       14270.010        6704.916         523.000
       17330.427        6370.488         410.134
       19571.144        6573.041         431.502
       22641.152        6627.002         687.185
       23763.572        6012.529         669.122
       27463.089        6427.221         796.372
       30273.002        6504.167         662.866
       33884.178        6077.220         608.774
       35390.886        6255.305         539.253
       38075.664        6205.118         704.733
       40048.604        6389.405         397.058
       43255.311        6307.072         515.014
       46126.564        6231.346         665.794
       48285.057        6596.744         748.390
       51294.080        6157.575         546.008
       54250.249        6543.358         817.760
       57921.865        6224.397         483.717
       59558.312        6004.572         325.132
       62425.662        6132.109         420.659
       65724.696        6341.122         626.264
       68956.079        6674.843         775.465
       72380.520        6490.972         598.053
       75318.037        6459.550         608.873
       78160.955        6114.578         192.553
       80000.000        6400.000           0.000
           0.000        8000.000           0.000
        3576.129        8217.635         188.406
        5061.593        7652.754         293.704
        8105.944        7856.844         727.189
       11121.498        7830.817         804.779
       14531.786        8256.985         841.430
       16036.950        7761.051         777.136
       19087.239        8020.414         727.851
       22626.171        7850.784         900.573
       25653.785        8135.625         900.430
       28733.316        8014.857         849.358
       30647.917        7622.140         665.525
       31669.813        8123.016         771.750
       35544.551        8083.612         740.533
       38771.621        7743.567         742.733
       41941.639        8315.419         827.638
       44649.095        8053.831         857.071
       48005.993        8300.872         862.076
       51584.272        8303.210         900.319
       52951.115        7723.006         900.319
       55834.828        8389.314         864.809
       58839.904        7674.993         556.231
       60484.772        8202.290         707.854
       63784.723        8145.830         679.994
       67326.420        8175.747         900.463
       68571.734        8073.207         900.463
       72193.925        8373.058         827.581
       73714.578        7878.720         638.341
       77044.523        8185.581         186.245
       78448.742        7636.455          96.831
       80000.000        8000.000           0.000
           0.000        9600.000           0.000
        3060.393        9702.503         182.270
[...]
POINT_DATA       2033
SCALARS discharge float 1
LOOKUP_TABLE default
  0.1005E+05
  0.1910E+07
  0.1298E+08
  0.1981E+07
  0.3295E+08
  0.1216E+07
  0.2585E+08
  0.1370E+07
  0.3123E+07
  0.1300E+07
  0.5328E+08
  0.2348E+07
  0.6097E+08
  0.1472E+07
  0.1662E+08
  0.2122E+07
  0.2889E+08
  0.1858E+07
  0.6630E+07
  0.1430E+07
  0.8218E+08
  0.2027E+07
  0.4373E+07
  0.1196E+07
  0.1823E+07
  0.6387E+08
  0.2106E+07
  0.4213E+07
  0.5495E+08
  0.1957E+07
  0.7840E+07
  0.1905E+07
  0.3925E+08
  0.1587E+07
  0.1645E+08
  0.1039E+07
  0.5833E+08
  0.3324E+07
  0.1814E+07
  0.7607E+07
  0.1143E+07
  0.5044E+08
  0.1046E+07
  0.1988E+08
  0.2887E+08
  0.8428E+06
  0.1914E+07
  0.1010E+07
  0.1130E+08
  0.1128E+07
  0.7254E+04
  0.3329E+05
  0.6845E+07
  0.2947E+07
  0.4528E+07
  0.1055E+08
  0.4811E+08
  0.1482E+07
  0.2433E+07
  0.5103E+07
  0.3688E+07
  0.8236E+06
  0.6457E+08
  0.1462E+07
  0.3136E+08
  0.1904E+07
  0.3093E+08
  0.8124E+06
  0.1393E+08
  0.8216E+07
  0.4705E+08
  0.1572E+07
  0.8645E+06
  0.1474E+08
  0.1125E+07
  0.2665E+08
  0.8148E+07
  0.2515E+07
  0.7654E+04
  0.3263E+05
  0.1899E+07
  0.3811E+07
  0.2293E+08
  0.4467E+07
  0.7592E+07
  0.4359E+08
  0.2584E+07
  0.5391E+08
  0.4045E+07
  0.2078E+08
  0.2542E+07
  0.8795E+07
  0.5779E+08
  0.2592E+08
  0.2645E+08
  0.2853E+08
  0.1747E+08
  0.2113E+07
  0.3442E+08
  0.1077E+08
  0.2121E+07
  0.4234E+08
  0.3280E+07
  0.2838E+08
  0.5180E+06
  0.1310E+08
  0.2330E+08
  0.2430E+07
  0.4545E+07
  0.2530E+07
  0.1908E+05
  0.6524E+07
  0.1387E+07
  0.5666E+06
  0.4723E+07
  0.2995E+08
  0.1537E+08
  0.3099E+08
  0.1260E+07
  0.9261E+07
  0.2509E+07
  0.5342E+08
  0.8864E+06
  0.1079E+07
  0.3733E+07
  0.2085E+07
  0.2317E+07
  0.2633E+07
  0.2741E+08
  0.5691E+07
  0.4690E+07
  0.2927E+08
  0.2113E+08
  0.9497E+07
  0.9160E+07
  0.1228E+08
  0.9761E+06
  0.4396E+07
  0.1311E+08
  0.1517E+08
  0.4919E+07
  0.2296E+07
  0.1067E+08
  0.7042E+07
  0.5818E+07
  0.9331E+07
  0.6608E+07
  0.1149E+07
  0.3494E+07
  0.3515E+07
  0.4031E+07
  0.6389E+07
  0.1285E+08
  0.2839E+07
  0.1855E+08
  0.1288E+08
  0.5068E+07
  0.8584E+07
  0.5821E+07
  0.2745E+07
  0.1189E+08
  0.1324E+08
  0.1643E+08
  0.5684E+07
  0.2395E+07
  0.3469E+07
  0.1656E+07
  0.4136E+07
  0.2172E+08
  0.1747E+08
  0.1321E+08
  0.1072E+08
  0.4509E+07
  0.4214E+07
  0.2642E+07
  0.2913E+07
  0.3839E+07
  0.5727E+07
  0.2394E+07
  0.7827E+07
  0.2281E+08
  0.7912E+07
  0.8636E+07
  0.4886E+07
  0.2487E+07
  0.6795E+07
  0.6536E+07
  0.1188E+07
  0.2042E+07
  0.4216E+07
  0.4082E+07
  0.3964E+07
  0.7013E+07
  0.2023E+07
  0.4150E+07
  0.2212E+07
  0.6549E+07
  0.1877E+08
  0.2170E+08
  0.1992E+07
  0.3252E+05
  0.1805E+08
  0.4924E+07
  0.2603E+07
  0.5553E+07
  0.7186E+07
  0.2132E+07
  0.2657E+07
  0.9002E+07
  0.1847E+08
  0.3690E+07
  0.1216E+08
  0.2530E+07
  0.1602E+07
  0.1164E+08
  0.1766E+07
  0.9009E+07
  0.4025E+07
  0.3350E+07
  0.8614E+07
  0.2034E+08
  0.1853E+07
  0.2316E+07
  0.2643E+07
  0.1916E+07
  0.2608E+07
  0.1799E+08
  0.1823E+07
  0.2460E+07
  0.1976E+07
  0.1255E+05
  0.2588E+08
  0.2508E+07
  0.3641E+07
  0.1467E+08
  0.2703E+07
  0.1801E+08
  0.3413E+07
  0.8969E+07
  0.2888E+07
  0.3676E+07
  0.8174E+07
  0.2599E+07
  0.3284E+07
  0.2845E+08
  0.5210E+07
  0.2222E+07
  0.1818E+08
  0.3196E+07
  0.2682E+07
  0.2253E+07
  0.8531E+07
  0.1281E+08
  0.4083E+08
  0.5579E+07
  0.1988E+08
  0.3020E+07
  0.3224E+07
  0.1793E+08
  0.1151E+07
  0.3621E+07
  0.1057E+08
  0.9818E+04
  0.1629E+08
  0.7266E+06
  0.2176E+07
  0.3457E+07
  0.2719E+07
  0.2555E+08
  0.1217E+08
  0.2949E+07
  0.2049E+07
  0.1493E+08
  0.3054E+08
  0.2996E+07
  0.1681E+08
  0.3520E+07
  0.1586E+08
  0.6693E+07
  0.2541E+07
  0.3624E+07
  0.2041E+08
  0.3078E+07
  0.4196E+07
  0.2722E+08
  0.3716E+07
  0.5173E+07
  0.1090E+08
  0.4407E+07
  0.2467E+07
  0.3395E+07
  0.3651E+07
  0.1239E+08
  0.6331E+07
  0.1025E+08
  0.1273E+08
  0.2702E+08
  0.1791E+05
  0.1171E+08
  0.8626E+07
  0.6827E+07
  0.4110E+07
  0.2279E+07
  0.3503E+07
  0.4524E+07
  0.1412E+08
  0.3358E+07
  0.2128E+07
  0.8823E+07
  0.4997E+08
  0.2252E+07
  0.4490E+07
  0.1425E+08
  0.2298E+07
  0.4386E+07
  0.6613E+07
  0.1393E+08
  0.2547E+08
  0.1487E+08
  0.3875E+07
  0.3794E+07
  0.3741E+07
  0.8644E+07
  0.2321E+07
  0.2798E+07
  0.3717E+07
  0.8244E+07
  0.4634E+08
  0.3671E+08
  0.1926E+08
  0.6131E+07
  0.4576E+07
  0.3175E+07
  0.3063E+08
  0.3400E+07
  0.7594E+07
  0.3964E+07
  0.1011E+08
  0.3330E+07
  0.1517E+08
  0.1053E+08
  0.4642E+07
  0.1605E+07
  0.7307E+07
  0.3641E+07
  0.3208E+07
  0.1687E+08
  0.3701E+07
  0.3048E+07
  0.4328E+07
  0.9407E+07
  0.6056E+07
  0.2698E+08
  0.3770E+07
  0.3557E+07
  0.1262E+08
  0.2093E+07
  0.1302E+05
  0.1883E+05
  0.2889E+07
  0.3226E+07
  0.1053E+07
  0.1654E+08
  0.9040E+07
  0.4691E+08
  0.3112E+07
  0.2655E+08
  0.1063E+08
  0.2805E+07
  0.4707E+07
  0.8341E+07
  0.3618E+07
  0.2784E+07
  0.2097E+08
  0.2353E+07
  0.2465E+07
  0.1200E+08
  0.4433E+07
  0.5475E+07
  0.4151E+07
  0.2833E+08
  0.3470E+08
  0.3074E+07
  0.4144E+07
  0.5418E+07
  0.2809E+07
  0.5295E+08
  0.5666E+08
  0.3179E+05
  0.8954E+06
  0.9410E+07
  0.2899E+07
  0.6910E+07
  0.2738E+07
  0.1171E+08
  0.1517E+08
  0.5535E+07
  0.1036E+08
  0.5165E+07
  0.3891E+07
  0.5403E+07
  0.1424E+08
  0.2523E+08
  0.3287E+07
  0.1270E+08
  0.2408E+07
  0.2153E+08
  0.4351E+07
  0.3755E+07
  0.2078E+07
  0.1034E+08
  0.1520E+08
  0.2563E+07
  0.4928E+07
  0.8379E+07
  0.2468E+08
  0.2510E+07
  0.6042E+07
  0.5852E+08
  0.4892E+08
  0.2135E+08
  0.3472E+07
  0.1483E+08
  0.2564E+07
  0.8142E+07
  0.7794E+07
  0.4327E+07
  0.5756E+08
  0.1006E+08
  0.7978E+07
  0.1375E+08
  0.6352E+07
  0.1809E+07
  0.1798E+07
  0.1234E+07
  0.9103E+07
  0.4773E+07
  0.2070E+08
  0.5268E+07
  0.1123E+08
  0.3805E+07
  0.2724E+07
  0.2213E+07
  0.2671E+08
  0.1942E+07
  0.2570E+07
  0.1174E+07
  0.2318E+07
  0.1722E+08
  0.3084E+05
  0.2098E+07
  0.8042E+07
  0.2481E+07
  0.4664E+07
  0.8228E+07
  0.2948E+08
  0.2405E+07
  0.4074E+07
  0.2105E+08
  0.2027E+07
  0.2721E+07
  0.5171E+07
  0.1553E+08
  0.2684E+07
  0.1521E+08
  0.1257E+08
  0.1208E+08
  0.1966E+07
  0.2623E+07
  0.2084E+07
  0.4774E+07
  0.3334E+07
  0.1783E+08
  0.1968E+07
  0.1209E+08
  0.4676E+07
  0.3609E+07
  0.7169E+07
  0.1720E+08
  0.2547E+07
  0.1044E+08
  0.6882E+07
  0.2036E+07
  0.1752E+07
  0.1622E+08
  0.3216E+07
  0.2898E+07
  0.1054E+08
  0.4850E+07
  0.8187E+07
  0.6103E+07
  0.1933E+08
  0.3804E+07
  0.4945E+07
  0.2279E+08
  0.3404E+07
  0.1302E+08
  0.1548E+07
  0.3924E+07
  0.1233E+08
  0.2008E+07
  0.1242E+08
  0.1657E+08
  0.6510E+07
  0.3277E+07
  0.4925E+07
  0.2918E+07
  0.4374E+07
  0.1140E+07
  0.4279E+07
  0.2532E+07
  0.7314E+04
  0.2144E+08
  0.1823E+08
  0.1135E+08
  0.6085E+07
  0.7662E+07
  0.4022E+07
  0.1269E+08
  0.3106E+07
  0.2233E+07
  0.1110E+08
  0.2864E+07
  0.5434E+08
  0.1151E+08
  0.1771E+07
  0.4684E+07
  0.4578E+08
  0.4418E+07
  0.3615E+07
  0.2321E+08
  0.2240E+07
  0.4022E+07
  0.2464E+07
  0.2708E+08
  0.2969E+07
  0.2049E+08
  0.8690E+07
  0.4453E+07
  0.4374E+07
  0.5898E+07
  0.1886E+08
  0.2947E+08
  0.1139E+05
  0.1806E+08
  0.1465E+08
  0.5174E+07
  0.3325E+07
  0.1272E+08
  0.2124E+07
  0.2267E+08
  0.5463E+07
  0.6990E+07
  0.2535E+07
  0.3529E+07
  0.6823E+07
  0.1036E+08
  0.7093E+07
  0.8842E+07
  0.4273E+07
  0.3871E+07
  0.2325E+07
  0.3946E+07
  0.2356E+08
  0.5888E+07
  0.3965E+07
  0.9718E+07
  0.2186E+07
  0.2323E+07
  0.1257E+08
  0.1222E+08
  0.4993E+07
  0.3077E+07
  0.4278E+08
  0.4022E+07
  0.1294E+07
  0.1000E+08
  0.5686E+07
  0.3339E+08
  0.5720E+07
  0.1242E+08
  0.2718E+08
  0.7957E+07
  0.2899E+08
  0.3114E+07
  0.4956E+07
  0.2028E+08
  0.3241E+07
  0.1595E+08
  0.2656E+08
  0.1230E+08
  0.3051E+07
  0.2582E+07
  0.1288E+08
  0.1066E+08
  0.3106E+08
  0.4734E+07
  0.4381E+07
  0.2038E+07
  0.4636E+07
  0.2617E+07
  0.8237E+07
  0.7542E+04
  0.2801E+07
  0.8268E+06
  0.1920E+08
  0.2802E+07
  0.1223E+07
  0.3238E+07
  0.3104E+07
  0.3483E+07
  0.6068E+07
  0.4063E+07
  0.5562E+07
  0.5616E+07
  0.3583E+07
  0.3124E+07
  0.5754E+07
  0.3104E+07
  0.9726E+07
  0.3208E+07
  0.3620E+07
  0.8343E+07
  0.5625E+07
  0.7537E+07
  0.6926E+07
  0.2532E+08
  0.4641E+08
  0.1422E+08
  0.2914E+07
  0.1319E+08
  0.6403E+06
  0.3578E+07
  0.7755E+07
  0.5546E+08
  0.5134E+08
  0.2532E+08
  0.8371E+07
  0.5521E+07
  0.7078E+07
  0.1011E+08
  0.1011E+08
  0.1475E+08
  0.2580E+07
  0.4503E+07
  0.1582E+08
  0.7190E+07
  0.2074E+07
  0.1018E+08
  0.2266E+07
  0.1746E+08
  0.3643E+07
  0.1970E+08
  0.3776E+07
  0.2550E+08
  0.8741E+07
  0.3594E+08
  0.2461E+07
  0.1800E+08
  0.3340E+07
  0.7900E+07
  0.1309E+08
  0.1053E+08
  0.1700E+08
  0.2021E+07
  0.8731E+04
  0.2134E+05
  0.4403E+07
  0.9201E+07
  0.3467E+07
  0.2867E+08
  0.7014E+07
  0.2608E+07
  0.2151E+07
  0.1556E+08
  0.2944E+07
  0.3373E+08
  0.2404E+07
  0.2155E+07
  0.1881E+08
  0.4326E+07
  0.2928E+07
  0.6060E+07
  0.5166E+07
  0.7543E+07
  0.1232E+08
  0.4843E+07
  0.6857E+07
  0.1118E+08
  0.3711E+07
  0.4704E+07
  0.3753E+07
  0.3503E+07
  0.1805E+08
  0.4721E+08
  0.4896E+08
  0.2099E+08
  0.1144E+08
  0.4948E+07
  0.1694E+07
  0.1529E+07
  0.2399E+07
  0.9546E+07
  0.1750E+08
  0.7127E+07
  0.1325E+08
  0.4112E+07
  0.9328E+07
  0.2523E+08
  0.5107E+07
  0.2483E+07
  0.9075E+07
  0.3027E+08
  0.4926E+07
  0.4344E+07
  0.3097E+07
  0.6215E+07
  0.9813E+07
  0.4733E+07
  0.4473E+07
  0.2988E+07
  0.2262E+07
  0.4599E+07
  0.1285E+08
  0.3074E+07
  0.1725E+07
  0.1201E+05
  0.3433E+05
  0.1059E+07
  0.3496E+07
  0.7523E+07
  0.7019E+07
  0.1666E+07
  0.1466E+08
  0.2333E+07
  0.2987E+07
  0.2913E+07
  0.1742E+08
  0.3694E+07
  0.6990E+07
  0.1828E+08
  0.2869E+07
  0.6560E+07
  0.4471E+07
  0.3948E+07
  0.7982E+07
  0.2379E+08
  0.5548E+07
  0.1714E+08
  0.1769E+08
  0.1653E+08
  0.1512E+08
  0.2841E+07
  0.1934E+07
  0.3795E+07
  0.1554E+08
  0.8034E+04
  0.6531E+08
  0.6095E+08
  0.4755E+08
  0.1847E+08
  0.1406E+08
  0.5749E+07
  0.4644E+07
  0.1317E+08
  0.1822E+08
  0.9620E+07
  0.3263E+07
  0.4164E+07
  0.6155E+07
  0.3543E+07
  0.1298E+08
  0.1184E+08
  0.2815E+07
  0.2182E+08
  0.3492E+08
  0.5033E+07
  0.3501E+07
  0.3214E+07
  0.4291E+07
  0.3175E+07
  0.2013E+07
  0.2466E+07
  0.2623E+07
  0.9874E+07
  0.2664E+08
  0.2328E+08
  0.1607E+08
  0.4173E+07
  0.7948E+07
  0.3119E+07
  0.1458E+08
  0.2726E+07
  0.7402E+07
  0.5015E+07
  0.2602E+07
  0.2397E+08
  0.6313E+07
  0.8431E+07
  0.1063E+08
  0.2954E+07
  0.4960E+07
  0.3295E+08
  0.9595E+07
  0.4006E+07
  0.2887E+07
  0.5147E+07
  0.3211E+07
  0.2031E+08
  0.2841E+07
  0.4856E+07
  0.2493E+07
  0.7036E+07
  0.2096E+07
  0.2128E+07
  0.5738E+07
  0.1108E+08
  0.9918E+07
  0.5046E+07
  0.1668E+07
  0.4516E+07
  0.5660E+07
  0.2477E+07
  0.3156E+08
  0.5058E+08
  0.3325E+08
  0.2138E+08
  0.1829E+08
  0.1168E+08
  0.4604E+07
  0.3650E+07
  0.2340E+07
  0.1811E+08
  0.6998E+07
  0.7784E+07
  0.3534E+07
  0.2208E+08
  0.3439E+07
  0.1573E+08
  0.4164E+07
  0.1014E+08
  0.2459E+08
  0.4051E+07
  0.1764E+08
  0.3763E+07
  0.9723E+07
  0.1493E+07
  0.9007E+07
  0.9667E+04
  0.3064E+05
  0.4999E+07
  0.2085E+07
  0.2432E+08
  0.2941E+07
  0.1272E+08
  0.6120E+07
  0.6700E+07
  0.2211E+07
  0.1709E+08
  0.3030E+07
  0.6143E+07
  0.7232E+07
  0.4427E+07
  0.3713E+08
  0.2234E+07
  0.2153E+07
  0.3321E+07
  0.5974E+07
  0.3225E+07
  0.1669E+08
  0.3269E+07
  0.6518E+07
  0.5468E+07
  0.2778E+07
  0.1141E+07
  0.7019E+07
  0.4255E+07
  0.2068E+08
  0.1128E+07
  0.1327E+05
  0.4236E+08
  0.3693E+08
  0.3449E+07
  0.6853E+07
  0.2688E+07
  0.4109E+07
  0.2420E+07
  0.3017E+08
  0.7263E+07
  0.2929E+07
  0.6378E+07
  0.2079E+08
  0.6467E+07
  0.1799E+08
  0.4031E+07
  0.5103E+07
  0.5338E+07
  0.7893E+07
  0.2928E+07
  0.1140E+08
  0.8787E+07
  0.1130E+08
  0.3711E+08
  0.1431E+08
  0.2267E+07
  0.5226E+07
  0.1624E+08
  0.1194E+07
  0.9701E+07
  0.2128E+08
  0.6074E+08
  0.6323E+08
  0.6832E+08
  0.2920E+05
  0.3322E+08
  0.1717E+08
  0.3535E+07
  0.2425E+07
  0.1565E+08
  0.4831E+07
  0.1254E+08
  0.4222E+07
  0.3639E+07
  0.1593E+08
  0.3584E+07
  0.3417E+07
  0.6514E+08
  0.4719E+07
  0.1888E+08
  0.7920E+07
  0.2971E+08
  0.8650E+07
  0.1024E+08
  0.3140E+07
  0.4053E+07
  0.3441E+07
  0.2076E+07
  0.4733E+07
  0.3133E+07
  0.6653E+07
  0.4172E+07
  0.6883E+07
  0.6820E+07
  0.1354E+08
  0.8632E+07
  0.1462E+08
  0.3327E+08
  0.9076E+07
  0.4035E+07
  0.8264E+07
  0.1920E+07
  0.2153E+08
  0.5687E+07
  0.3613E+07
  0.4431E+07
  0.3904E+07
  0.1279E+08
  0.3069E+08
  0.3691E+07
  0.3173E+07
  0.3092E+07
  0.2998E+07
  0.7182E+07
  0.4709E+07
  0.4220E+07
  0.2042E+08
  0.3909E+07
  0.3912E+07
  0.1509E+08
  0.3759E+07
  0.2930E+07
  0.2891E+07
  0.2676E+07
  0.9971E+04
  0.1914E+05
  0.4887E+07
  0.2758E+07
  0.1952E+07
  0.1364E+08
  0.4236E+07
  0.5604E+07
  0.8373E+07
  0.3139E+07
  0.1266E+08
  0.8359E+07
  0.4268E+07
  0.1252E+08
  0.3695E+07
  0.1380E+08
  0.5082E+07
  0.2880E+08
  0.1173E+08
  0.2963E+07
  0.1453E+08
  0.1960E+08
  0.8522E+07
  0.1090E+08
  0.1052E+08
  0.2053E+07
  0.8966E+07
  0.8168E+07
  0.1673E+07
  0.5852E+07
  0.1076E+08
  0.1276E+08
  0.8565E+08
  0.1441E+08
  0.8553E+07
  0.1103E+07
  0.2291E+08
  0.1419E+08
  0.1975E+07
  0.1999E+08
  0.1905E+07
  0.2267E+08
  0.2265E+08
  0.1529E+07
  0.6000E+07
  0.5598E+07
  0.2641E+07
  0.2474E+07
  0.2404E+07
  0.2085E+08
  0.4344E+07
  0.4035E+08
  0.6470E+07
  0.3675E+07
  0.9605E+07
  0.2789E+07
  0.1875E+08
  0.2412E+08
  0.5438E+07
  0.4130E+07
  0.1077E+08
  0.1305E+08
  0.3264E+05
  0.8069E+08
  0.5758E+08
  0.5163E+08
  0.7008E+06
  0.3241E+07
  0.5011E+07
  0.3348E+08
  0.2836E+07
  0.1007E+08
  0.2609E+07
  0.1041E+08
  0.1713E+08
  0.6734E+07
  0.2563E+08
  0.2952E+07
  0.1181E+08
  0.7425E+07
  0.2497E+07
  0.4560E+08
  0.1655E+08
  0.2775E+07
  0.2294E+07
  0.3865E+07
  0.1371E+08
  0.2017E+07
  0.1600E+07
  0.1725E+08
  0.9670E+06
  0.1502E+07
  0.5064E+07
  0.7837E+07
  0.7841E+07
  0.3440E+07
  0.7489E+07
  0.5501E+07
  0.4038E+07
  0.2696E+08
  0.4318E+07
  0.1768E+08
  0.3038E+07
  0.3130E+07
  0.5167E+07
  0.3027E+07
  0.2299E+08
  0.4107E+07
  0.9276E+07
  0.4785E+07
  0.3023E+07
  0.6195E+07
  0.2493E+07
  0.7374E+08
  0.1948E+07
  0.1070E+08
  0.1910E+07
  0.7490E+07
  0.2902E+07
  0.5051E+07
  0.5836E+07
  0.1536E+07
  0.3322E+08
  0.3667E+08
  0.7425E+04
  0.4609E+08
  0.3832E+07
  0.2979E+07
  0.2922E+07
  0.2951E+07
  0.9548E+07
  0.1031E+08
  0.8982E+07
  0.3072E+07
  0.6966E+07
  0.5709E+07
  0.4348E+08
  0.3464E+07
  0.3694E+07
  0.6948E+07
  0.2069E+08
  0.4153E+08
  0.3248E+07
  0.2097E+08
  0.2219E+07
  0.1681E+08
  0.1095E+08
  0.2567E+07
  0.2243E+08
  0.3839E+07
  0.3305E+07
  0.2103E+08
  0.2983E+07
  0.2827E+08
  0.2186E+07
  0.4160E+08
  0.1807E+05
  0.3656E+08
  0.1432E+07
  0.2022E+07
  0.1905E+08
  0.5387E+07
  0.3054E+07
  0.4057E+07
  0.1786E+08
  0.1445E+08
  0.1563E+08
  0.8100E+07
  0.3931E+07
  0.1169E+08
  0.4869E+07
  0.1836E+07
  0.3535E+07
  0.1686E+07
  0.1091E+08
  0.2364E+07
  0.1997E+07
  0.2380E+07
  0.4553E+07
  0.2628E+07
  0.1383E+08
  0.5378E+07
  0.3272E+07
  0.1083E+08
  0.3814E+07
  0.1254E+05
  0.4472E+05
  0.2043E+08
  0.1198E+08
  0.5200E+07
  0.3780E+07
  0.3163E+08
  0.1725E+08
  0.4354E+07
  0.2764E+07
  0.2761E+08
  0.1429E+07
  0.2727E+08
  0.2053E+07
  0.2245E+08
  0.4204E+07
  0.2573E+08
  0.4166E+07
  0.1225E+08
  0.1828E+08
  0.2532E+07
  0.1749E+08
  0.2280E+07
  0.1817E+08
  0.2420E+07
  0.1883E+08
  0.3169E+07
  0.3592E+07
  0.3181E+07
  0.2152E+07
  0.1021E+08
  0.1909E+08
  0.1819E+05
  0.9388E+07
  0.1341E+07
  0.1293E+07
  0.3556E+07
  0.3688E+07
  0.7133E+07
  0.9216E+07
  0.3680E+07
  0.1912E+08
  0.2355E+07
  0.2220E+07
  0.6139E+07
  0.1263E+07
  0.1061E+08
  0.7350E+07
  0.3555E+07
  0.4752E+07
  0.5210E+07
  0.3290E+07
  0.5367E+07
  0.3297E+07
  0.6050E+07
  0.2348E+07
  0.2983E+07
  0.1553E+08
  0.3169E+07
  0.1011E+08
  0.2049E+08
  0.1253E+07
  0.1265E+07
  0.6010E+08
  0.9435E+07
  0.2817E+08
  0.3655E+07
  0.4111E+07
  0.6495E+07
  0.4433E+07
  0.1585E+07
  0.4206E+07
  0.6853E+07
  0.1494E+08
  0.3126E+07
  0.1690E+08
  0.4625E+07
  0.4222E+07
  0.3224E+07
  0.2930E+07
  0.2765E+08
  0.8105E+07
  0.5472E+07
  0.1889E+08
  0.4432E+07
  0.1005E+08
  0.2069E+07
  0.2951E+08
  0.1637E+07
  0.9818E+06
  0.2373E+07
  0.1752E+07
  0.5444E+08
  0.6009E+08
  0.1603E+07
  0.1983E+05
  0.3405E+08
  0.3753E+07
  0.1246E+08
  0.2231E+08
  0.3879E+07
  0.1345E+08
  0.5136E+07
  0.1554E+07
  0.7118E+07
  0.5395E+07
  0.3504E+08
  0.2318E+07
  0.1854E+08
  0.3467E+07
  0.2537E+08
  0.3000E+07
  0.6644E+07
  0.3814E+07
  0.2809E+07
  0.7024E+07
  0.2387E+08
  0.2311E+07
  0.1422E+08
  0.1066E+08
  0.2523E+07
  0.8655E+07
  0.6191E+07
  0.2091E+08
  0.2341E+08
  0.1588E+07
  0.1161E+05
  0.5726E+08
  0.1421E+08
  0.1046E+07
  0.4987E+07
  0.1591E+08
  0.4870E+07
  0.1666E+08
  0.5107E+07
  0.1879E+08
  0.2886E+07
  0.2837E+07
  0.1278E+08
  0.5304E+07
  0.6600E+07
  0.2972E+07
  0.4618E+07
  0.3432E+07
  0.1538E+08
  0.3255E+07
  0.1764E+08
  0.8733E+06
  0.2488E+07
  0.2016E+08
  0.5678E+07
  0.3565E+07
  0.1869E+07
  0.1245E+07
  0.9620E+07
  0.2895E+07
  0.1194E+08
  0.1617E+08
  0.2496E+05
  0.3233E+07
  0.7327E+06
  0.3714E+07
  0.4487E+07
  0.2319E+07
  0.1389E+08
  0.1483E+07
  0.4218E+07
  0.4336E+08
  0.5751E+07
  0.3552E+07
  0.2956E+07
  0.2390E+08
  0.3814E+07
  0.4281E+07
  0.4351E+07
  0.1975E+08
  0.1362E+07
  0.3032E+07
  0.3994E+08
  0.2935E+07
  0.5071E+07
  0.2985E+07
  0.2007E+08
  0.1189E+08
  0.3323E+07
  0.9798E+07
  0.5290E+07
  0.4982E+07
  0.6792E+07
  0.1180E+05
  0.3233E+05
  0.4271E+08
  0.1935E+07
  0.5314E+07
  0.3095E+07
  0.5299E+07
  0.2831E+08
  0.5654E+07
  0.3136E+07
  0.3471E+07
  0.6579E+07
  0.1897E+08
  0.3501E+07
  0.1137E+08
  0.3490E+07
  0.2569E+08
  0.2078E+07
  0.1127E+08
  0.3600E+07
  0.9841E+07
  0.1438E+08
  0.3244E+07
  0.8384E+07
  0.1443E+08
  0.3329E+07
  0.3069E+07
  0.2958E+07
  0.1737E+07
  0.3881E+07
  0.1588E+07
  0.1079E+08
  0.5012E+08
  0.1110E+07
  0.2502E+08
  0.1111E+08
  0.4180E+07
  0.2027E+07
  0.5565E+07
  0.8291E+07
  0.1472E+08
  0.3050E+07
  0.7917E+07
  0.4524E+07
  0.2198E+07
  0.9897E+07
  0.6658E+07
  0.1197E+08
  0.9179E+07
  0.4368E+07
  0.6895E+07
  0.3588E+07
  0.2830E+07
  0.1815E+08
  0.2710E+07
  0.1009E+08
  0.9837E+07
  0.2546E+07
  0.9670E+07
  0.4604E+07
  0.1466E+08
  0.3972E+07
  0.1173E+05
  0.3260E+05
  0.2041E+07
  0.1950E+08
  0.1303E+07
  0.1095E+08
  0.2545E+07
  0.1614E+07
  0.1337E+08
  0.4941E+07
  0.1097E+08
  0.4323E+07
  0.2709E+07
  0.5018E+07
  0.2512E+07
  0.1329E+08
  0.5634E+07
  0.1899E+07
  0.1363E+08
  0.6122E+07
  0.1338E+08
  0.6234E+07
  0.3150E+07
  0.7548E+07
  0.2472E+07
  0.2196E+07
  0.4141E+07
  0.1151E+07
  0.3882E+07
  0.2933E+07
  0.3118E+08
  0.3966E+08
  0.2373E+08
  0.1602E+08
  0.5048E+07
  0.1224E+07
  0.1323E+08
  0.3541E+07
  0.5633E+07
  0.7481E+07
  0.2630E+07
  0.3762E+08
  0.1760E+07
  0.3389E+07
  0.2291E+07
  0.3298E+07
  0.2923E+08
  0.3672E+07
  0.3159E+07
  0.4685E+07
  0.4976E+07
  0.1097E+07
  0.1669E+07
  0.2767E+07
  0.2631E+07
  0.6385E+07
  0.4678E+07
  0.1226E+08
  0.2615E+07
  0.3303E+07
  0.1834E+07
  0.4749E+07
  0.1230E+05
  0.3343E+05
  0.4191E+07
  0.1964E+07
  0.5502E+07
  0.4358E+07
  0.3526E+08
  0.7060E+06
  0.3221E+07
  0.9328E+07
  0.1588E+07
  0.5646E+08
  0.7904E+07
  0.1595E+08
  0.6839E+07
  0.1196E+07
  0.3877E+08
  0.1075E+08
  0.9654E+06
  0.6731E+07
  0.2435E+08
  0.1931E+07
  0.1742E+07
  0.1344E+08
  0.3111E+07
  0.1011E+08
  0.1442E+07
  0.2276E+08
  0.1329E+07
  0.6660E+07
  0.3956E+07
  0.2328E+07
  0.7423E+04
  0.1623E+08
  0.3112E+07
  0.1188E+08
  0.1039E+07
  0.4841E+08
  0.8147E+06
  0.4418E+07
  0.5580E+07
  0.4285E+08
  0.1635E+08
  0.2000E+07
  0.6228E+08
  0.2679E+08
  0.2416E+08
  0.1932E+08
  0.1994E+07
  0.9977E+07
  0.4648E+08
  0.8335E+06
  0.2605E+08
  0.1951E+07
  0.4109E+08
  0.2208E+07
  0.4507E+07
  0.1667E+08
  0.1116E+08
  0.4805E+07
  0.2692E+08
  0.2583E+07