# vtk DataFile Version 3.0
rivers
ASCII
DATASET UNSTRUCTURED_GRID
POINTS       2467 float
           0.000           0.000           0.000
        1600.000           0.000           0.000
        3200.000           0.000           0.000
        4800.000           0.000           0.000
        6400.000           0.000           0.000
        8000.000           0.000           0.000
        9600.000           0.000           0.000
       11200.000           0.000           0.000
       12800.000           0.000           0.000
       14400.001           0.000           0.000
       16000.000           0.000           0.000
       17600.000           0.000           0.000
       19200.000           0.000           0.000
       20799.999           0.000           0.000
       22400.000           0.000           0.000
       24000.001           0.000           0.000
       25599.999           0.000           0.000
       27200.000           0.000           0.000
       28800.001           0.000           0.000
       30400.000           0.000           0.000
       32000.000           0.000           0.000
       33599.999           0.000           0.000
       35200.000           0.000           0.000
       36800.001           0.000           0.000
       38399.999           0.000           0.000
       40000.000           0.000           0.000
       41599.998           0.000           0.000
       43200.002           0.000           0.000
       44800.000           0.000           0.000
       46399.999           0.000           0.000
       48000.002           0.000           0.000
       49600.000           0.000           0.000
       51199.999           0.000           0.000
       52800.002           0.000           0.000
       54400.001           0.000           0.000
       55999.999           0.000           0.000
       57600.002           0.000           0.000
       59200.001           0.000           0.000
       60799.999           0.000           0.000
       62399.998           0.000           0.000
       64000.001           0.000           0.000
       65599.999           0.000           0.000
       67199.998           0.000           0.000
       68800.001           0.000           0.000
       70400.000           0.000           0.000
       71999.998           0.000           0.000
       73600.001           0.000           0.000
       75200.000           0.000           0.000
       76799.998           0.000           0.000
       78400.002           0.000           0.000
       80000.000           0.000           0.000
           0.000        1600.000           0.000
        1820.535        1836.129         195.675
        4436.497        1560.645         240.126
        8231.839        1585.959         209.977
       11192.297        1979.624         146.887
       14535.388        1860.001          62.710
       17224.315        1919.917         426.240
       20899.237        1802.853         338.232
       23731.335        1792.943         269.504
       27507.238        1603.221         233.002
       30065.602        1613.570         288.867
       33371.579        1994.991          27.288
       37099.539        1414.823         251.300
       38196.713        1837.356          91.490
       43418.644        1867.336          45.865
       49975.028        1831.460         209.805
       52954.322        1538.422         136.852
       55816.240        1531.934         179.964
       59004.449        1641.677          30.574
       60471.826        1510.939         331.559
       63784.513        1656.536         228.511
       67301.210        1771.228         155.373
       70381.695        1920.216         337.054
       72217.113        1448.806          87.074
       75069.462        1621.662         158.797
       78696.327        1722.356         253.403
       80000.000        1600.000           0.000
           0.000        3200.000           0.000
        5160.666        3300.186         202.926
        6043.012        3262.445         121.423
        9502.865        3552.908         326.120
       11056.006        2840.019         216.106
       14606.628        2840.755          89.911
       17562.634        3511.308         204.238
       18833.142        3539.080          58.417
       22026.411        2868.051         280.966
       25600.029        2863.835         100.624
       27192.156        3106.980         315.045
       30375.600        2888.881         263.940
       33224.678        2857.386          37.383
       36841.038        3085.085         161.972
       40238.304        3524.647          66.610
       43557.179        3128.631          71.371
       46228.872        2830.415         149.860
       48146.017        3166.706         448.545
       51153.215        2952.745          44.488
       53124.514        2981.904         249.888
       56001.007        3429.944         478.357
       59307.581        3225.477          53.637
       62124.444        3154.870         396.178
       64132.610        2904.590          91.961
       67439.924        3451.420         537.610
       68998.763        3472.006         155.244
       72219.436        2879.026         144.246
       75532.535        3132.944         344.100
       78652.387        3551.841         175.536
       80000.000        3200.000           0.000
           0.000        4800.000           0.000
        1400.060        4439.660         183.028
        4786.648        4655.285         362.657
       11454.778        4403.585         385.096
       14098.429        4923.032         156.113
       17912.789        5043.475         114.001
       20446.875        4859.061         100.209
       24108.597        4895.159         390.893
       27234.832        4431.193         266.816
       28696.423        4449.033         606.401
       32196.694        4589.490          61.025
       33867.228        4797.771         454.871
       34933.129        4760.558         548.235
       38067.139        5053.208         515.390
       41605.852        4581.133         298.860
       44854.687        5021.321         526.925
       48175.269        4416.823         409.310
       51163.202        5122.950          79.904
       54186.876        4703.411         527.966
       56317.818        4828.699         351.983
       59169.326        5108.954          81.703
       62536.999        4516.819         158.297
       65848.099        4445.450         398.346
       68694.276        4766.024         220.400
       71946.222        4752.098         242.079
       75433.121        5067.460         612.254
       78033.243        4664.320         188.897
       80000.000        4800.000           0.000
           0.000        6400.000           0.000
        2841.623        6773.290         237.753
        6245.685        6376.243         475.637
        7744.385        6030.238         304.493
       11368.686        6592.994         340.561
       14270.010        6704.916         315.673
       17330.427        6370.488         163.615
       19571.144        6573.041         398.513
       23763.572        6012.529         482.333
       27463.089        6427.221         508.349
       30273.002        6504.167         230.793
       33884.178        6077.220         234.778
       35390.886        6255.305         322.807
       38075.664        6205.118         522.560
       40048.604        6389.405         125.415
       43255.311        6307.072         152.623
       46126.564        6231.346         443.047
       48285.057        6596.744         318.520
       51294.080        6157.575          98.231
       54250.249        6543.358         615.254
       57921.865        6224.397         178.800
       59558.312        6004.572          96.994
       62425.662        6132.109         208.829
       65724.696        6341.122         658.362
       68956.079        6674.843         515.981
       72380.520        6490.972         445.609
       75318.037        6459.550         514.673
       78160.955        6114.578         246.916
       80000.000        6400.000           0.000
           0.000        8000.000           0.000
        3576.129        8217.635         261.177
        5061.593        7652.754         409.095
        8105.944        7856.844         479.367
       11121.498        7830.817         492.783
       14531.786        8256.985         533.801
       16036.950        7761.051         382.922
       19087.239        8020.414         541.606
       22626.171        7850.784         337.531
       25653.785        8135.625         450.765
       28733.316        8014.857         326.717
       30647.917        7622.140         104.592
       31669.813        8123.016         321.052
       35544.551        8083.612         422.275
       38771.621        7743.567         166.872
       41941.639        8315.419         464.121
       44649.095        8053.831         325.119
       48005.993        8300.872         545.636
       51584.272        8303.210         334.050
       52951.115        7723.006         332.949
       55834.828        8389.314         434.369
       58839.904        7674.993         126.466
       60484.772        8202.290         448.264
       63784.723        8145.830         293.790
       67326.420        8175.747         687.636
       68571.734        8073.207         670.060
       72193.925        8373.058         745.197
       73714.578        7878.720         434.801
       77044.523        8185.581         158.631
       78448.742        7636.455          87.096
       80000.000        8000.000           0.000
           0.000        9600.000           0.000
        3060.393        9702.503         101.005
        6737.398        9989.628         227.431
        9830.599        9930.901         431.080
       13186.894        9245.149         367.703
       15857.041        9479.674         632.004
[...]
POINT_DATA       2467
SCALARS discharge float 1
LOOKUP_TABLE default
  0.1006E+05
  0.1943E+07
  0.1009E+08
  0.1988E+07
  0.3887E+08
  0.1239E+07
  0.2310E+08
  0.1359E+07
  0.3052E+07
  0.1269E+07
  0.6079E+08
  0.2973E+07
  0.1523E+09
  0.1556E+07
  0.1227E+08
  0.2187E+07
  0.3747E+08
  0.1858E+07
  0.5786E+07
  0.3123E+07
  0.3259E+09
  0.1830E+07
  0.2496E+07
  0.2855E+07
  0.1746E+07
  0.1552E+09
  0.2285E+07
  0.1166E+07
  0.1205E+09
  0.1959E+07
  0.5502E+07
  0.2391E+07
  0.1927E+09
  0.1522E+07
  0.1182E+08
  0.1046E+07
  0.2066E+09
  0.3091E+07
  0.1915E+07
  0.5584E+07
  0.1088E+07
  0.6847E+08
  0.1084E+07
  0.2844E+08
  0.3093E+08
  0.8398E+06
  0.1898E+07
  0.1004E+07
  0.1174E+08
  0.1145E+07
  0.7308E+04
  0.3357E+05
  0.5085E+07
  0.1813E+07
  0.3935E+07
  0.9025E+07
  0.5713E+08
  0.5540E+06
  0.1450E+07
  0.2327E+07
  0.2983E+07
  0.1583E+07
  0.3145E+09
  0.1611E+07
  0.3024E+08
  0.9819E+08
  0.1856E+07
  0.9316E+07
  0.6726E+07
  0.1969E+09
  0.1386E+07
  0.1421E+07
  0.8745E+07
  0.8355E+06
  0.2866E+08
  0.8582E+07
  0.2401E+07
  0.7689E+04
  0.3298E+05
  0.8379E+07
  0.2422E+08
  0.3797E+07
  0.6180E+07
  0.5241E+08
  0.3175E+07
  0.1449E+09
  0.3394E+07
  0.2893E+08
  0.2855E+07
  0.4424E+07
  0.3071E+09
  0.2518E+08
  0.1169E+09
  0.9378E+08
  0.1601E+08
  0.8744E+06
  0.1867E+09
  0.6321E+07
  0.1515E+07
  0.1920E+09
  0.1449E+07
  0.5176E+08
  0.6191E+06
  0.2169E+08
  0.2528E+08
  0.3009E+07
  0.4374E+07
  0.2416E+07
  0.1908E+05
  0.6768E+07
  0.3317E+07
  0.3392E+07
  0.4213E+08
  0.3926E+08
  0.9748E+08
  0.1250E+07
  0.7068E+07
  0.6000E+06
  0.3036E+09
  0.7173E+06
  0.5369E+06
  0.1168E+07
  0.1325E+07
  0.7691E+06
  0.1850E+07
  0.1798E+09
  0.1825E+07
  0.3962E+07
  0.1791E+09
  0.4588E+08
  0.4352E+07
  0.1681E+08
  0.1531E+08
  0.9556E+06
  0.4403E+07
  0.1197E+08
  0.1526E+08
  0.4724E+07
  0.2317E+07
  0.1190E+08
  0.6663E+07
  0.4856E+07
  0.3290E+08
  0.1194E+07
  0.1595E+07
  0.2691E+07
  0.3011E+07
  0.7699E+07
  0.1549E+08
  0.1383E+07
  0.1095E+09
  0.8012E+08
  0.4790E+07
  0.6823E+07
  0.1623E+09
  0.1277E+07
  0.1214E+08
  0.1624E+09
  0.3996E+08
  0.1163E+07
  0.1611E+07
  0.3304E+07
  0.1315E+07
  0.3161E+07
  0.2066E+08
  0.8586E+07
  0.4791E+07
  0.2857E+07
  0.4738E+07
  0.3142E+07
  0.1971E+07
  0.3342E+07
  0.6341E+06
  0.5918E+07
  0.7743E+07
  0.4154E+07
  0.2772E+09
  0.1696E+07
  0.1059E+08
  0.9975E+08
  0.1428E+07
  0.6639E+07
  0.2885E+07
  0.1476E+07
  0.4549E+07
  0.3916E+07
  0.1551E+09
  0.2251E+07
  0.2771E+08
  0.1805E+07
  0.2205E+07
  0.9012E+06
  0.5494E+07
  0.1755E+08
  0.2064E+08
  0.2242E+07
  0.3257E+05
  0.4425E+08
  0.2686E+08
  0.7889E+07
  0.1781E+08
  0.1346E+07
  0.2832E+07
  0.2043E+08
  0.1085E+07
  0.1516E+07
  0.5142E+07
  0.2682E+09
  0.1012E+07
  0.1149E+07
  0.9098E+08
  0.1147E+07
  0.1770E+07
  0.9292E+06
  0.1458E+07
  0.1349E+09
  0.6282E+07
  0.7716E+06
  0.4411E+07
  0.1095E+07
  0.1989E+07
  0.3243E+07
  0.8133E+06
  0.7932E+06
  0.1892E+07
  0.2226E+07
  0.1269E+05
  0.5122E+08
  0.1642E+07
  0.2083E+07
  0.8194E+07
  0.2247E+07
  0.3539E+07
  0.2158E+07
  0.4111E+08
  0.5117E+07
  0.2712E+07
  0.2492E+09
  0.1206E+07
  0.2613E+07
  0.1126E+08
  0.4259E+07
  0.3214E+07
  0.2872E+07
  0.2942E+07
  0.6406E+07
  0.1221E+07
  0.1657E+07
  0.1550E+07
  0.1379E+09
  0.3571E+07
  0.9074E+07
  0.1295E+07
  0.5321E+07
  0.9897E+06
  0.5293E+07
  0.1274E+07
  0.4440E+07
  0.1006E+05
  0.1180E+08
  0.5332E+06
  0.7204E+06
  0.2597E+07
  0.8290E+06
  0.1340E+07
  0.3637E+07
  0.8269E+07
  0.7296E+06
  0.6952E+07
  0.9483E+06
  0.1063E+08
  0.8213E+08
  0.1493E+09
  0.3636E+07
  0.6310E+07
  0.6315E+08
  0.1692E+07
  0.4049E+08
  0.4567E+07
  0.2018E+07
  0.1135E+09
  0.1133E+07
  0.5343E+08
  0.7705E+08
  0.8680E+07
  0.2733E+07
  0.8455E+06
  0.2104E+08
  0.2297E+08
  0.4973E+08
  0.5624E+08
  0.5931E+08
  0.6761E+08
  0.1812E+05
  0.7213E+07
  0.4253E+07
  0.6618E+07
  0.4371E+07
  0.3823E+07
  0.6948E+07
  0.2420E+07
  0.2179E+08
  0.1016E+07
  0.1193E+08
  0.2843E+07
  0.1373E+09
  0.1678E+07
  0.1458E+07
  0.5334E+08
  0.1864E+07
  0.3264E+08
  0.3135E+07
  0.4899E+07
  0.2822E+07
  0.1969E+08
  0.6555E+08
  0.2025E+07
  0.4008E+07
  0.7104E+07
  0.2403E+07
  0.1940E+07
  0.2148E+07
  0.6204E+07
  0.8528E+08
  0.7668E+08
  0.5823E+08
  0.4330E+08
  0.2403E+08
  0.2503E+07
  0.3681E+07
  0.1446E+08
  0.1694E+07
  0.6514E+07
  0.1789E+07
  0.2362E+07
  0.1200E+09
  0.3809E+07
  0.2405E+07
  0.2366E+07
  0.1782E+08
  0.5602E+06
  0.4674E+08
  0.1345E+07
  0.1429E+07
  0.5067E+08
  0.1021E+08
  0.1490E+07
  0.1467E+07
  0.1115E+07
  0.2042E+07
  0.1621E+07
  0.7661E+07
  0.1664E+07
  0.1319E+05
  0.1898E+05
  0.1821E+07
  0.1551E+07
  0.1361E+07
  0.5673E+06
  0.1451E+07
  0.6727E+07
  0.3123E+07
  0.1158E+07
  0.2303E+07
  0.4456E+08
  0.5339E+07
  0.9175E+08
  0.2357E+08
  0.2295E+07
  0.3484E+08
  0.1298E+08
  0.3523E+07
  0.2838E+08
  0.4274E+08
  0.6866E+07
  0.1909E+08
  0.4806E+08
  0.1633E+07
  0.1490E+08
  0.3533E+08
  0.1724E+07
  0.2502E+07
  0.1097E+09
  0.1135E+09
  0.3240E+05
  0.9803E+06
  0.5109E+07
  0.3622E+07
  0.7981E+06
  0.3363E+07
  0.1691E+07
  0.5549E+07
  0.1072E+07
  0.2967E+08
  0.5105E+07
  0.1684E+08
  0.6305E+08
  0.1842E+07
  0.1321E+08
  0.2678E+08
  0.8163E+07
  0.1933E+08
  0.1063E+08
  0.5142E+07
  0.1394E+08
  0.1134E+08
  0.1377E+08
  0.1298E+07
  0.6060E+07
  0.8519E+06
  0.6551E+08
  0.8525E+08
  0.1867E+07
  0.5215E+07
  0.1766E+09
  0.1683E+09
  0.1451E+09
  0.1198E+09
  0.9802E+08
  0.9169E+08
  0.6288E+08
  0.2978E+08
  0.3208E+07
  0.1787E+08
  0.2022E+07
  0.9836E+07
  0.1010E+08
  0.2894E+07
  0.1776E+07
  0.3982E+07
  0.2838E+07
  0.4925E+07
  0.2759E+08
  0.8683E+06
  0.9001E+07
  0.7363E+07
  0.1145E+08
  0.1671E+07
  0.1853E+07
  0.1989E+08
  0.5280E+06
  0.2580E+07
  0.1592E+07
  0.2158E+07
  0.1251E+08
  0.3138E+05
  0.1923E+07
  0.6159E+07
  0.5000E+07
  0.9787E+07
  0.5554E+07
  0.9290E+07
  0.1389E+07
  0.2163E+07
  0.3276E+07
  0.1153E+07
  0.3055E+07
  0.2726E+08
  0.1068E+08
  0.2726E+07
  0.1266E+08
  0.3087E+07
  0.9599E+07
  0.3354E+07
  0.5784E+07
  0.3244E+07
  0.7801E+07
  0.6762E+06
  0.8518E+07
  0.1147E+07
  0.1592E+07
  0.5190E+06
  0.1492E+07
  0.4038E+07
  0.1249E+08
  0.2216E+07
  0.6114E+07
  0.2644E+07
  0.6577E+06
  0.5157E+06
  0.2622E+07
  0.7362E+06
  0.4798E+07
  0.6566E+07
  0.3051E+07
  0.3850E+07
  0.2419E+07
  0.2879E+07
  0.8129E+07
  0.4488E+07
  0.5939E+07
  0.1370E+08
  0.2028E+07
  0.3727E+07
  0.4595E+07
  0.2435E+07
  0.1664E+07
  0.1862E+07
  0.1051E+07
  0.1534E+07
  0.2234E+07
  0.1512E+07
  0.8657E+06
  0.3064E+07
  0.2729E+07
  0.2201E+07
  0.7395E+04
  0.2404E+08
  0.2050E+08
  0.1027E+08
  0.4186E+07
  0.8091E+06
  0.5631E+07
  0.4804E+07
  0.3303E+07
  0.1559E+07
  0.6265E+07
  0.2347E+07
  0.1795E+08
  0.4299E+07
  0.1281E+07
  0.4108E+07
  0.2440E+08
  0.3715E+07
  0.4463E+07
  0.2663E+08
  0.2613E+07
  0.2748E+07
  0.3440E+07
  0.1657E+07
  0.5311E+07
  0.3491E+07
  0.1443E+08
  0.2792E+08
  0.4705E+08
  0.5882E+08
  0.7008E+08
  0.7864E+08
  0.1144E+05
  0.9161E+07
  0.5877E+07
  0.2222E+07
  0.4798E+07
  0.1258E+08
  0.7660E+07
  0.6573E+07
  0.8419E+07
  0.4513E+07
  0.9045E+07
  0.9571E+07
  0.1641E+07
  0.1205E+08
  0.7477E+07
  0.1020E+08
  0.3741E+07
  0.4609E+07
  0.2711E+07
  0.4629E+07
  0.2344E+08
  0.4923E+07
  0.7517E+07
  0.3111E+08
  0.1779E+07
  0.1534E+07
  0.1168E+07
  0.2802E+07
  0.3600E+07
  0.1610E+07
  0.8884E+08
  0.4432E+07
  0.1444E+07
  0.1926E+07
  0.2246E+09
  0.2053E+09
  0.1739E+09
  0.1527E+09
  0.7551E+08
  0.3889E+08
  0.2501E+08
  0.4112E+07
  0.5523E+07
  0.2213E+08
  0.3752E+07
  0.1728E+08
  0.2801E+08
  0.1430E+08
  0.3559E+07
  0.2040E+07
  0.6611E+07
  0.2427E+08
  0.7092E+08
  0.4961E+07
  0.2088E+07
  0.2687E+07
  0.3415E+07
  0.1082E+07
  0.5000E+07
  0.7594E+04
  0.1137E+07
  0.2278E+07
  0.2385E+09
  0.6844E+06
  0.3169E+07
  0.7870E+06
  0.1822E+07
  0.2018E+08
  0.2311E+08
  0.1449E+08
  0.6509E+07
  0.4888E+07
  0.3513E+07
  0.4279E+07
  0.7366E+07
  0.3645E+07
  0.8255E+07
  0.3027E+07
  0.4234E+07
  0.9607E+07
  0.1776E+07
  0.8410E+07
  0.1860E+07
  0.1685E+09
  0.1720E+09
  0.1983E+09
  0.2121E+09
  0.2328E+09
  0.1616E+07
  0.1517E+07
  0.5462E+07
  0.3215E+09
  0.3173E+09
  0.6821E+08
  0.5776E+08
  0.5337E+08
  0.5668E+07
  0.1358E+07
  0.1249E+08
  0.1496E+08
  0.1610E+07
  0.4367E+07
  0.9406E+07
  0.8350E+07
  0.2438E+07
  0.1194E+08
  0.2670E+07
  0.2112E+08
  0.2773E+07
  0.2589E+08
  0.4188E+07
  0.2849E+08
  0.2375E+07
  0.5444E+07
  0.2748E+07
  0.8083E+08
  0.2258E+07
  0.2843E+07
  0.8941E+06
  0.2387E+09
  0.1845E+07
  0.8799E+04
  0.2170E+05
  0.3431E+07
  0.2526E+07
  0.4355E+07
  0.2879E+08
  0.1798E+08
  0.6370E+07
  0.6458E+07
  0.7694E+07
  0.2739E+07
  0.2940E+08
  0.2754E+07
  0.2531E+07
  0.2211E+08
  0.5107E+07
  0.3473E+07
  0.8541E+07
  0.1001E+08
  0.8453E+07
  0.1331E+08
  0.6677E+07
  0.3138E+08
  0.6350E+08
  0.4076E+07
  0.1845E+07
  0.1203E+07
  0.1480E+07
  0.6260E+08
  0.3138E+09
  0.3149E+09
  0.1498E+08
  0.7995E+07
  0.2909E+07
  0.3914E+07
  0.1411E+07
  0.3556E+07
  0.1172E+07
  0.2221E+07
  0.2191E+07
  0.5802E+07
  0.4759E+07
  0.1035E+08
  0.2828E+08
  0.6017E+07
  0.2950E+07
  0.1079E+08
  0.3623E+08
  0.5410E+07
  0.3512E+07
  0.4359E+07
  0.7416E+07
  0.2576E+07
  0.1327E+08
  0.2456E+07
  0.1385E+08
  0.3162E+08
  0.3698E+08
  0.5794E+08
  0.3251E+07
  0.1102E+07
  0.1228E+05
  0.3417E+05
  0.2049E+07
  0.3992E+07
  0.3881E+07
  0.1839E+07
  0.1054E+08
  0.6304E+07
  0.2603E+07
  0.1377E+08
  0.3280E+07
  0.1231E+08
  0.3805E+07
  0.7448E+07
  0.2181E+08
  0.3410E+07
  0.7707E+07
  0.5203E+07
  0.4645E+07
  0.8820E+07
  0.5401E+07
  0.4694E+07
  0.2586E+07
  0.5135E+07
  0.2680E+07
  0.2355E+07
  0.2053E+07
  0.3440E+07
  0.7046E+06
  0.1003E+08
  0.8084E+04
  0.3674E+09
  0.3607E+09
  0.3453E+09
  0.3103E+09
  0.3043E+09
  0.4469E+08
  0.3983E+08
  0.2249E+08
  0.3603E+07
  0.2104E+08
  0.6832E+07
  0.4110E+07
  0.7529E+07
  0.4083E+07
  0.1592E+08
  0.1386E+08
  0.3316E+07
  0.2448E+08
  0.1778E+08
  0.1772E+07
  0.7457E+07
  0.2649E+07
  0.1223E+07
  0.2613E+07
  0.1994E+07
  0.4590E+07
  0.1794E+08
  0.1411E+08
  0.7787E+07
  0.4469E+07
  0.9488E+07
  0.1473E+07
  0.2247E+09
  0.1070E+07
  0.1359E+08
  0.2310E+07
  0.2397E+08
  0.1237E+08
  0.1008E+08
  0.4882E+07
  0.1174E+08
  0.3689E+07
  0.6075E+07
  0.4033E+08
  0.1124E+08
  0.4746E+07
  0.2775E+07
  0.6031E+07
  0.3768E+07
  0.4198E+07
  0.8095E+07
  0.1757E+08
  0.3563E+07
  0.6853E+07
  0.6539E+07
  0.4250E+07
  0.2105E+07
  0.7885E+07
  0.5700E+07
  0.2328E+07
  0.7166E+06
  0.3268E+07
  0.5098E+07
  0.4664E+07
  0.6570E+07
  0.2045E+09
  0.1836E+09
  0.1637E+09
  0.1146E+09
  0.7079E+08
  0.2254E+07
  0.1838E+07
  0.2730E+07
  0.1985E+08
  0.9569E+07
  0.9165E+07
  0.4290E+07
  0.2616E+08
  0.4034E+07
  0.1103E+08
  0.1235E+08
  0.3896E+07
  0.6044E+07
  0.1272E+09
  0.1305E+09
  0.1469E+09
  0.1619E+09
  0.1453E+07
  0.4829E+07
  0.9808E+04
  0.3144E+05
  0.2281E+07
  0.2841E+07
  0.3876E+08
  0.1976E+07
  0.1041E+07
  0.3162E+07
  0.1036E+08
  0.7131E+07
  0.3991E+08
  0.1762E+07
  0.3992E+08
  0.7411E+07
  0.4343E+07
  0.4077E+08
  0.3899E+07
  0.2593E+07
  0.3855E+07
  0.7003E+07
  0.3800E+07
  0.9793E+07
  0.2737E+08
  0.3779E+08
  0.7745E+08
  0.8671E+08
  0.7602E+06
  0.9834E+06
  0.8140E+06
  0.1766E+09
  0.2256E+07
  0.1322E+05
  0.5994E+08
  0.5447E+08
  0.3698E+07
  0.8107E+07
  0.9899E+07
  0.6685E+06
  0.2838E+07
  0.3262E+07
  0.5432E+07
  0.3847E+07
  0.1577E+07
  0.7371E+07
  0.8626E+07
  0.3003E+07
  0.4347E+07
  0.5481E+07
  0.6349E+07
  0.9262E+07
  0.3471E+07
  0.1431E+08
  0.6548E+07
  0.7145E+07
  0.2868E+07
  0.1868E+07
  0.1186E+07
  0.3099E+08
  0.3571E+08
  0.4256E+08
  0.7651E+08
  0.8568E+08
  0.2778E+09
  0.2825E+09
  0.2867E+09
  0.2913E+05
  0.2809E+08
  0.1346E+08
  0.1049E+07
  0.1221E+07
  0.2651E+07
  0.4695E+07
  0.2834E+07
  0.8990E+06
  0.1676E+08
  0.4551E+07
  0.5197E+07
  0.5345E+08
  0.5312E+07
  0.2210E+08
  0.9405E+07
  0.3527E+08
  0.1072E+08
  0.1171E+08
  0.3396E+07
  0.4527E+07
  0.6910E+07
  0.1546E+08
  0.2404E+08
  0.7614E+07
  0.1041E+08
  0.2415E+08
  0.2980E+08
  0.1194E+07
  0.1007E+08
  0.6079E+07
  0.1206E+08
  0.2814E+08
  0.7660E+07
  0.4104E+07
  0.4726E+07
  0.6424E+07
  0.2606E+08
  0.1254E+08
  0.3773E+07
  0.3854E+07
  0.2621E+07
  0.1200E+08
  0.3127E+08
  0.4686E+07
  0.3754E+07
  0.3661E+07
  0.3327E+07
  0.8120E+07
  0.5524E+07
  0.3346E+07
  0.2969E+07
  0.9100E+06
  0.2462E+07
  0.2179E+07
  0.1202E+07
  0.4784E+07
  0.1158E+07
  0.2738E+07
  0.1007E+05
  0.1927E+05
  0.4439E+07
  0.1907E+07
  0.1553E+08
  0.5390E+08
  0.1552E+07
  0.1309E+07
  0.1192E+08
  0.3914E+07
  0.4973E+07
  0.4274E+07
  0.1338E+08
  0.4321E+07
  0.1608E+08
  0.5960E+07
  0.3438E+08
  0.1418E+08
  0.3407E+07
  0.1732E+08
  0.2021E+08
  0.7784E+07
  0.9323E+07
  0.1816E+08
  0.2741E+08
  0.1699E+07
  0.2427E+07
  0.2672E+07
  0.3214E+07
  0.2011E+07
  0.3610E+07
  0.3204E+09
  0.9490E+07
  0.3632E+07
  0.5226E+07
  0.2440E+09
  0.1625E+09
  0.1938E+07
  0.2571E+08
  0.2335E+07
  0.2643E+08
  0.6721E+07
  0.1181E+07
  0.5863E+07
  0.6506E+07
  0.3089E+07
  0.3016E+07
  0.2735E+07
  0.2429E+08
  0.5083E+07
  0.4515E+08
  0.6782E+07
  0.5806E+07
  0.4856E+07
  0.4123E+07
  0.7503E+08
  0.9397E+08
  0.1068E+09
  0.1218E+09
  0.1349E+09
  0.1374E+09
  0.3260E+05
  0.3158E+09
  0.2971E+09
  0.2912E+09
  0.1563E+07
  0.1527E+09
  0.1200E+09
  0.4802E+08
  0.3807E+08
  0.3598E+07
  0.4776E+07
  0.4672E+07
  0.4264E+07
  0.2460E+08
  0.3439E+07
  0.1363E+08
  0.8670E+07
  0.2814E+07
  0.5121E+08
  0.1859E+08
  0.3532E+07
  0.1917E+08
  0.2759E+08
  0.4615E+07
  0.3363E+07
  0.2266E+07
  0.3800E+06
  0.4854E+06
  0.1589E+07
  0.5695E+06
  0.2085E+07
  0.5847E+07
  0.1478E+07
  0.8404E+07
  0.1447E+08
  0.6652E+06
  0.1586E+08
  0.3359E+07
  0.3873E+08
  0.2965E+07
  0.2260E+07
  0.1202E+08
  0.8505E+06
  0.1318E+08
  0.3211E+07
  0.1006E+08
  0.5119E+07
  0.3516E+07
  0.6536E+07
  0.2837E+07
  0.7933E+08
  0.2468E+07
  0.4465E+07
  0.1620E+07
  0.4772E+07
  0.1383E+08
  0.1788E+08
  0.2519E+08
  0.9522E+06
  0.6023E+08
  0.6408E+08
  0.7345E+04
  0.1021E+09
  0.1725E+07
  0.8804E+06
  0.3374E+07
  0.9919E+06
  0.9554E+07
  0.3975E+07
  0.1897E+08
  0.3148E+07
  0.2230E+08
  0.7018E+07
  0.1815E+08
  0.5364E+07
  0.3730E+07
  0.6596E+07
  0.1455E+08
  0.1372E+08
  0.3441E+07
  0.1671E+08
  0.4600E+07
  0.9964E+07
  0.3365E+07
  0.1999E+07
  0.1397E+07
  0.9392E+06
  0.9844E+06
  0.2842E+07
  0.1317E+08
  0.5537E+08
  0.7350E+06
  0.6750E+08
  0.1786E+05
  0.9450E+08
  0.1902E+07
  0.2553E+07
  0.2350E+07
  0.3260E+07
  0.2295E+07
  0.1527E+07
  0.1821E+07
  0.2609E+07
  0.3082E+08
  0.3999E+08
  0.5806E+07
  0.8562E+07
  0.6159E+07
  0.1589E+07
  0.3559E+07
  0.2389E+07
  0.2952E+08
  0.3231E+07
  0.1476E+07
  0.1417E+08
  0.3998E+07
  0.5296E+07
  0.3702E+07
  0.7388E+06
  0.8382E+07
  0.3382E+07
  0.1270E+05
  0.4487E+05
  0.8336E+08
  0.7145E+08
  0.5044E+08
  0.2506E+08
  0.2223E+08
  0.8620E+07
  0.5516E+07
  0.9630E+08
  0.2094E+07
  0.2995E+07
  0.2767E+07
  0.3953E+08
  0.4905E+07
  0.1271E+08
  0.5502E+07
  0.2047E+07
  0.3751E+08
  0.1493E+08
  0.6913E+07
  0.2131E+07
  0.9380E+07
  0.3953E+08
  0.5765E+08
  0.8308E+08
  0.2318E+07
  0.3591E+07
  0.2333E+07
  0.3502E+07
  0.1141E+08
  0.1868E+05
  0.4212E+07
  0.1764E+07
  0.1702E+07
  0.4217E+07
  0.1188E+07
  0.5446E+07
  0.2983E+07
  0.1983E+07
  0.2902E+07
  0.4615E+07
  0.9493E+06
  0.5252E+06
  0.1528E+07
  0.3359E+07
  0.4428E+08
  0.2350E+08
  0.2787E+07
  0.1503E+08
  0.2391E+08
  0.1192E+08
  0.4377E+07
  0.1778E+07
  0.7854E+07
  0.9881E+07
  0.2339E+07
  0.1047E+09
  0.1145E+09
  0.1296E+09
  0.2402E+07
  0.7196E+06
  0.2035E+09
  0.4258E+07
  0.7007E+08
  0.2631E+07
  0.3021E+07
  0.3282E+07
  0.1793E+07
  0.1313E+07
  0.1252E+08
  0.4553E+07
  0.1196E+09
  0.1286E+08
  0.2260E+07
  0.9183E+07
  0.1996E+07
  0.2808E+07
  0.2966E+07
  0.5534E+07
  0.1468E+07
  0.2760E+08
  0.1407E+08
  0.8358E+07
  0.3060E+07
  0.4589E+07
  0.1097E+07
  0.8654E+06
  0.9805E+06
  0.3534E+06
  0.1991E+09
  0.2035E+09
  0.1396E+07
  0.1936E+05
  0.7661E+08
  0.1358E+07
  0.5841E+08
  0.3725E+08
  0.1242E+08
  0.2843E+07
  0.1405E+08
  0.6200E+06
  0.2161E+08
  0.5066E+07
  0.1435E+09
  0.7054E+07
  0.2715E+07
  0.8583E+08
  0.1235E+07
  0.7183E+07
  0.2242E+07
  0.1256E+08
  0.2099E+07
  0.4279E+08
  0.3929E+07
  0.9693E+06
  0.1646E+07
  0.3510E+07
  0.1075E+08
  0.2722E+08
  0.3491E+08
  0.5466E+08
  0.5725E+08
  0.1381E+07
  0.1171E+05
  0.9347E+08
  0.8294E+07
  0.1448E+07
  0.1783E+07
  0.7869E+07
  0.4324E+07
  0.5245E+07
  0.7090E+07
  0.2690E+08
  0.1881E+07
  0.1464E+08
  0.2661E+07
  0.1154E+08
  0.9273E+08
  0.5574E+08
  0.5137E+06
  0.3037E+07
  0.1194E+09
  0.2229E+07
  0.4782E+08
  0.6600E+06
  0.4832E+07
  0.1152E+07
  0.1182E+08
  0.3275E+07
  0.5872E+07
  0.2091E+07
  0.1427E+08
  0.2222E+07
  0.9535E+07
  0.1374E+08
  0.2552E+05
  0.2775E+07
  0.1436E+07
  0.8321E+07
  0.8515E+06
  0.9125E+06
  0.1046E+07
  0.1178E+07
  0.5421E+07
  0.4895E+08
  0.4525E+07
  0.1788E+09
  0.2865E+07
  0.6809E+06
  0.1607E+08
  0.6331E+08
  0.8682E+07
  0.1704E+07
  0.6125E+07
  0.1489E+07
  0.5470E+08
  0.1597E+07
  0.1427E+07
  0.1401E+07
  0.3454E+07
  0.1364E+07
  0.1311E+07
  0.7318E+06
  0.8780E+07
  0.3302E+07
  0.6021E+07
  0.1185E+05
  0.3291E+05
  0.5184E+08
  0.1068E+07
  0.4271E+07
  0.4836E+07
  0.1524E+07
  0.4633E+07
  0.2477E+07
  0.6314E+07
  0.5559E+06
  0.1848E+09
  0.1663E+07
  0.8578E+06
  0.6038E+07
  0.1583E+07
  0.7342E+06
  0.1680E+07
  0.7353E+06
  0.2191E+07
  0.1229E+07
  0.7371E+08
  0.1210E+07
  0.2981E+07
  0.2076E+07
  0.3468E+08
  0.3696E+07
  0.2417E+07
  0.4028E+07
  0.8522E+07
  0.5953E+08
  0.1745E+07
  0.2927E+08
  0.1712E+08
  0.6018E+07
  0.7807E+06
  0.5597E+08
  0.3419E+07
  0.1834E+07
  0.6205E+08
  0.2037E+09
  0.1337E+08
  0.5259E+07
  0.1963E+09
  0.2932E+07
  0.2023E+08
  0.2759E+07
  0.7168E+07
  0.8126E+08
  0.2929E+07
  0.2472E+08
  0.9856E+06
  0.1774E+07
  0.2665E+07
  0.1503E+08
  0.4138E+07
  0.7883E+07
  0.2121E+08
  0.2474E+07
  0.1186E+05
  0.3316E+05
  0.8173E+06
  0.2362E+08
  0.7392E+06
  0.1471E+08
  0.6486E+06
  0.6522E+08
  0.4173E+07
  0.7021E+08
  0.1986E+07
  0.1878E+07
  0.3522E+07
  0.2168E+09
  0.3665E+08
  0.6667E+06
  0.3253E+07
  0.1590E+09
  0.9723E+07
  0.2225E+07
  0.3035E+08
  0.6430E+07
  0.1539E+07
  0.6223E+06
  0.2371E+08
  0.4479E+06
  0.6646E+06
  0.2342E+07
  0.3861E+08
  0.4692E+08
  0.1974E+08
  0.1341E+08
  0.2360E+07
  0.4176E+07
  0.1193E+08
  0.3298E+07
  0.1247E+08
  0.1065E+07
  0.3763E+07
  0.3019E+09
  0.4213E+07
  0.2378E+07
  0.2181E+07
  0.4566E+07
  0.2613E+09
  0.1074E+07
  0.3317E+07
  0.8037E+07
  0.1001E+09
  0.2088E+07
  0.3559E+08
  0.1460E+08
  0.5518E+08
  0.5063E+07
  0.3478E+08
  0.5025E+07
  0.4347E+07
  0.1538E+07
  0.4501E+07
  0.1236E+05
  0.3358E+05
  0.4252E+07
  0.2189E+07
  0.3857E+07
  0.5384E+07
  0.4253E+08
  0.9573E+06
  0.3164E+07
  0.1795E+08
  0.1047E+07
  0.3223E+09
  0.1111E+08
  0.1016E+08
  0.2408E+07
  0.2396E+07
  0.2734E+09
  0.6699E+07
  0.5570E+06
  0.9980E+07
  0.2725E+09
  0.2418E+07
  0.4812E+08
  0.1578E+07
  0.5942E+08
  0.5799E+06
  0.4635E+08
  0.6732E+06
  0.9659E+07
  0.3475E+07
  0.2276E+07
  0.7449E+04
  0.1628E+08
  0.3121E+07
  0.1005E+08
  0.1515E+07
  0.5707E+08
  0.1186E+07
  0.2866E+07
  0.1063E+07
  0.1072E+09
  0.5649E+07
  0.4326E+07
  0.3305E+09
  0.2000E+08
  0.1768E+08
  0.1353E+08
  0.1382E+07
  0.4915E+07
  0.2803E+09
  0.7616E+06
  0.2056E+08
  0.2071E+07
  0.2929E+09
  0.9634E+06
  0.2714E+07
  0.5164E+08
  0.2129E+08
  0.2563E+07
  0.5162E+08
  0.2285E+07
  0.6325E+07
  0.2273E+08
  0.6538E+07
  0.2458E+07
  0.2292E+07
  0.3372E+05
  0.2188E+07
  0.2209E+07
  0.3914E+07
  0.1596E+07
  0.4414E+07
  0.1789E+07
  0.7022E+07
  0.2069E+07
  0.3333E+09
  0.2706E+07
  0.1129E+08
  0.9996E+07
  0.2879E+09
  0.1723E+07
  0.2743E+08