# vtk DataFile Version 3.0
rivers
ASCII
DATASET UNSTRUCTURED_GRID
POINTS       1881 float
           0.000           0.000           0.000
        1600.000           0.000           0.000
        3200.000           0.000           0.000
        4800.000           0.000           0.000
        6400.000           0.000           0.000
        8000.000           0.000           0.000
        9600.000           0.000           0.000
       11200.000           0.000           0.000
       12800.000           0.000           0.000
       14400.001           0.000           0.000
       16000.000           0.000           0.000
       17600.000           0.000           0.000
       19200.000           0.000           0.000
       20799.999           0.000           0.000
       22400.000           0.000           0.000
       24000.001           0.000           0.000
       25599.999           0.000           0.000
       27200.000           0.000           0.000
       28800.001           0.000           0.000
       30400.000           0.000           0.000
       32000.000           0.000           0.000
       33599.999           0.000           0.000
       35200.000           0.000           0.000
       36800.001           0.000           0.000
       38399.999           0.000           0.000
       40000.000           0.000           0.000
       41599.998           0.000           0.000
       43200.002           0.000           0.000
       44800.000           0.000           0.000
       46399.999           0.000           0.000
       48000.002           0.000           0.000
       49600.000           0.000           0.000
       51199.999           0.000           0.000
       52800.002           0.000           0.000
       54400.001           0.000           0.000
       55999.999           0.000           0.000
       57600.002           0.000           0.000
       59200.001           0.000           0.000
       60799.999           0.000           0.000
       62399.998           0.000           0.000
       64000.001           0.000           0.000
       65599.999           0.000           0.000
       67199.998           0.000           0.000
       68800.001           0.000           0.000
       70400.000           0.000           0.000
       71999.998           0.000           0.000
       73600.001           0.000           0.000
       75200.000           0.000           0.000
       76799.998           0.000           0.000
       78400.002           0.000           0.000
       80000.000           0.000           0.000
           0.000        1600.000           0.000
        1820.535        1836.129         140.552
        4436.497        1560.645         171.414
        8231.839        1585.959         154.551
       11192.297        1979.624         197.937
       14535.388        1860.001         129.025
       17224.315        1919.917         178.694
       20899.237        1802.853         189.046
       23731.335        1792.943         159.317
       27507.238        1603.221         162.631
       30065.602        1613.570         227.048
       33371.579        1994.991         141.459
       37099.539        1414.823         185.873
       38196.713        1837.356         131.409
       41840.942        1855.796         174.555
       43418.644        1867.336         122.383
       46734.950        1319.882         197.414
       49975.028        1831.460         233.188
       52954.322        1538.422         182.309
       55816.240        1531.934         168.768
       59004.449        1641.677         168.382
       60471.826        1510.939         180.896
       63784.513        1656.536         231.703
       67301.210        1771.228         212.109
       70381.695        1920.216         227.473
       72217.113        1448.806         136.786
       75069.462        1621.662         170.508
       78696.327        1722.356         165.298
       80000.000        1600.000           0.000
           0.000        3200.000           0.000
        3274.399        3217.174         248.726
        5160.666        3300.186         300.496
        6043.012        3262.445         194.802
        9502.865        3552.908         300.568
       11056.006        2840.019         300.568
       14606.628        2840.755         187.415
       17562.634        3511.308         221.581
       18833.142        3539.080         144.994
       22026.411        2868.051         201.872
       25600.029        2863.835         198.957
       27192.156        3106.980         300.224
       30375.600        2888.881         300.224
       33224.678        2857.386         204.275
       36841.038        3085.085         212.833
       40238.304        3524.647         213.442
       43557.179        3128.631         185.061
       46228.872        2830.415         201.944
       48146.017        3166.706         229.146
       51153.215        2952.745         196.977
       53124.514        2981.904         300.022
       56001.007        3429.944         300.319
       59307.581        3225.477         300.248
       62124.444        3154.870         216.402
       64132.610        2904.590         300.405
       67439.924        3451.420         300.234
       68998.763        3472.006         300.356
       72219.436        2879.026         214.516
       75532.535        3132.944         300.538
       78652.387        3551.841         152.676
       80000.000        3200.000           0.000
           0.000        4800.000           0.000
        1400.060        4439.660         169.335
        4786.648        4655.285         300.498
        8308.484        5116.135         300.421
       11454.778        4403.585         300.662
       14098.429        4923.032         300.236
       17912.789        5043.475         236.569
       20446.875        4859.061         232.538
       24108.597        4895.159         300.721
       27234.832        4431.193         300.311
       28696.423        4449.033         300.224
       32196.694        4589.490         300.523
       33867.228        4797.771         300.500
       34933.129        4760.558         300.500
       38067.139        5053.208         275.262
       41605.852        4581.133         279.980
       44854.687        5021.321         300.139
       48175.269        4416.823         300.203
       51163.202        5122.950         300.172
       54186.876        4703.411         300.269
       56317.818        4828.699         300.269
       59169.326        5108.954         300.248
       62536.999        4516.819         300.405
       65848.099        4445.450         300.234
       68694.276        4766.024         300.400
       71946.222        4752.098         300.132
       75433.121        5067.460         300.481
       78033.243        4664.320         177.784
       80000.000        4800.000           0.000
           0.000        6400.000           0.000
        2841.623        6773.290         190.792
        6245.685        6376.243         300.466
        7744.385        6030.238         300.421
       11368.686        6592.994         300.350
       14270.010        6704.916         300.395
       17330.427        6370.488         300.503
       19571.144        6573.041         300.469
       22641.152        6627.002         300.735
       23763.572        6012.529         300.716
       27463.089        6427.221         300.237
       30273.002        6504.167         300.248
       33884.178        6077.220         300.500
       35390.886        6255.305         300.500
       38075.664        6205.118         300.386
       40048.604        6389.405         300.379
       43255.311        6307.072         300.286
       46126.564        6231.346         300.139
       48285.057        6596.744         300.139
       51294.080        6157.575         300.158
       54250.249        6543.358         300.297
       57921.865        6224.397         300.447
       59558.312        6004.572         300.248
       62425.662        6132.109         300.406
       65724.696        6341.122         300.262
       68956.079        6674.843         300.436
       72380.520        6490.972         300.296
       75318.037        6459.550         300.489
       78160.955        6114.578         170.126
       80000.000        6400.000           0.000
           0.000        8000.000           0.000
        3576.129        8217.635         182.610
        5061.593        7652.754         242.506
        8105.944        7856.844         300.421
       11121.498        7830.817         300.357
       14531.786        8256.985         300.350
       16036.950        7761.051         300.301
       19087.239        8020.414         300.469
       22626.171        7850.784         300.570
       25653.785        8135.625         300.410
       28733.316        8014.857         300.222
       30647.917        7622.140         300.222
       31669.813        8123.016         300.222
       35544.551        8083.612         300.588
       38771.621        7743.567         300.405
       41941.639        8315.419         300.305
       44649.095        8053.831         300.150
       48005.993        8300.872         300.139
       51584.272        8303.210         300.298
       52951.115        7723.006         300.298
       55834.828        8389.314         300.344
       58839.904        7674.993         300.249
       60484.772        8202.290         300.264
       63784.723        8145.830         300.516
       67326.420        8175.747         300.419
       68571.734        8073.207         300.419
       72193.925        8373.058         300.626
       73714.578        7878.720         300.488
       77044.523        8185.581         207.452
       78448.742        7636.455         125.387
       80000.000        8000.000           0.000
           0.000        9600.000           0.000
[...]
POINT_DATA       1881
SCALARS discharge float 1
LOOKUP_TABLE default
  0.9985E+04
  0.1846E+07
  0.1279E+08
  0.1945E+07
  0.1177E+08
  0.1143E+07
  0.1232E+08
  0.1393E+07
  0.3235E+07
  0.1317E+07
  0.1681E+08
  0.2129E+07
  0.2596E+08
  0.1336E+07
  0.1702E+08
  0.2059E+07
  0.8601E+07
  0.1803E+07
  0.6379E+07
  0.1208E+07
  0.1695E+08
  0.1962E+07
  0.5160E+07
  0.1004E+07
  0.1690E+07
  0.2356E+08
  0.1975E+07
  0.5494E+07
  0.2136E+08
  0.1314E+07
  0.1057E+08
  0.1696E+07
  0.8476E+07
  0.1652E+07
  0.4687E+07
  0.1007E+07
  0.1062E+08
  0.3886E+07
  0.1681E+07
  0.7751E+07
  0.1129E+07
  0.7543E+07
  0.1140E+07
  0.5180E+07
  0.1074E+08
  0.8749E+06
  0.1955E+07
  0.1017E+07
  0.7636E+07
  0.1064E+07
  0.7057E+04
  0.3281E+05
  0.7035E+07
  0.2617E+07
  0.4312E+07
  0.2713E+07
  0.1052E+08
  0.2727E+07
  0.3403E+07
  0.4582E+07
  0.3748E+07
  0.1278E+07
  0.9325E+07
  0.2468E+07
  0.1349E+08
  0.3238E+07
  0.1120E+08
  0.1045E+07
  0.1481E+07
  0.2260E+07
  0.4007E+07
  0.3647E+07
  0.2075E+07
  0.1130E+07
  0.2117E+07
  0.1248E+07
  0.8554E+07
  0.4739E+07
  0.2806E+07
  0.7493E+04
  0.3167E+05
  0.2014E+07
  0.5583E+07
  0.6298E+07
  0.3030E+07
  0.8735E+07
  0.6576E+07
  0.4108E+07
  0.1960E+08
  0.4220E+07
  0.3691E+07
  0.2029E+07
  0.3702E+07
  0.3967E+07
  0.8474E+07
  0.4428E+07
  0.9014E+07
  0.4685E+07
  0.2045E+07
  0.4909E+07
  0.6979E+07
  0.1369E+07
  0.2741E+08
  0.3658E+07
  0.2067E+08
  0.9817E+06
  0.8206E+07
  0.5477E+07
  0.2173E+07
  0.3709E+07
  0.2821E+07
  0.1897E+05
  0.5878E+07
  0.2729E+07
  0.1432E+07
  0.1689E+07
  0.1198E+08
  0.4006E+07
  0.6972E+07
  0.2271E+07
  0.2780E+07
  0.1791E+08
  0.3007E+07
  0.4812E+07
  0.7111E+07
  0.3309E+07
  0.1670E+07
  0.3642E+07
  0.3227E+07
  0.2231E+07
  0.1724E+08
  0.8947E+07
  0.1970E+08
  0.1371E+08
  0.1429E+08
  0.2141E+07
  0.1191E+08
  0.1126E+08
  0.2417E+07
  0.9822E+07
  0.1439E+08
  0.4773E+07
  0.2668E+07
  0.2465E+08
  0.9911E+07
  0.2065E+07
  0.1757E+07
  0.4361E+07
  0.1510E+07
  0.1442E+08
  0.2858E+07
  0.3712E+07
  0.3678E+07
  0.2006E+08
  0.2767E+07
  0.1402E+08
  0.2842E+07
  0.8662E+07
  0.2876E+08
  0.8279E+07
  0.2159E+07
  0.1657E+07
  0.1472E+08
  0.8271E+07
  0.6174E+07
  0.5008E+07
  0.2025E+07
  0.1656E+07
  0.3666E+07
  0.7800E+07
  0.1316E+08
  0.8907E+07
  0.6423E+07
  0.8960E+07
  0.4153E+07
  0.1986E+07
  0.3925E+07
  0.1394E+08
  0.1042E+08
  0.2152E+07
  0.1355E+08
  0.4158E+08
  0.1512E+08
  0.3298E+07
  0.3269E+07
  0.2084E+07
  0.1550E+08
  0.4274E+07
  0.1161E+07
  0.3159E+07
  0.5106E+07
  0.1011E+08
  0.5508E+07
  0.2840E+07
  0.4140E+07
  0.9935E+07
  0.1585E+07
  0.7997E+07
  0.5736E+07
  0.7783E+07
  0.1644E+07
  0.3221E+05
  0.7048E+07
  0.2081E+07
  0.5145E+07
  0.1102E+08
  0.1256E+08
  0.1919E+07
  0.2677E+07
  0.8477E+07
  0.1699E+08
  0.4174E+07
  0.6248E+07
  0.3814E+07
  0.2887E+07
  0.1476E+08
  0.2793E+07
  0.1085E+08
  0.3588E+07
  0.4787E+07
  0.6842E+07
  0.2499E+08
  0.7801E+07
  0.3668E+07
  0.4406E+07
  0.1783E+07
  0.4117E+07
  0.2663E+08
  0.1722E+07
  0.2453E+07
  0.1628E+07
  0.1226E+05
  0.1429E+08
  0.1945E+07
  0.2231E+07
  0.4969E+08
  0.2280E+07
  0.2235E+08
  0.3354E+07
  0.8786E+07
  0.2692E+07
  0.4282E+07
  0.3509E+07
  0.2916E+07
  0.4420E+07
  0.3235E+08
  0.4407E+07
  0.1715E+07
  0.1708E+08
  0.2367E+07
  0.2388E+07
  0.2004E+07
  0.5936E+07
  0.1163E+08
  0.3869E+08
  0.7079E+07
  0.1721E+08
  0.2740E+07
  0.3251E+07
  0.2292E+08
  0.2984E+07
  0.5634E+07
  0.5767E+07
  0.9878E+04
  0.1242E+08
  0.9726E+06
  0.3369E+07
  0.9649E+07
  0.3404E+08
  0.2344E+08
  0.1113E+08
  0.2654E+07
  0.1440E+07
  0.1360E+08
  0.2665E+08
  0.2795E+07
  0.1612E+08
  0.4376E+07
  0.1555E+08
  0.5507E+07
  0.2111E+07
  0.3634E+07
  0.1891E+08
  0.2256E+07
  0.2763E+07
  0.2580E+08
  0.4542E+07
  0.3830E+07
  0.1036E+08
  0.4876E+07
  0.1764E+07
  0.2534E+07
  0.4027E+07
  0.1370E+08
  0.5717E+07
  0.1672E+08
  0.2186E+07
  0.1164E+08
  0.1775E+05
  0.7800E+07
  0.4812E+07
  0.1600E+08
  0.2919E+08
  0.2442E+07
  0.3423E+07
  0.4032E+07
  0.1228E+08
  0.2568E+07
  0.1933E+07
  0.7820E+07
  0.4498E+08
  0.2323E+07
  0.4500E+07
  0.1306E+08
  0.2039E+07
  0.4478E+07
  0.7679E+07
  0.1483E+08
  0.2379E+08
  0.1345E+08
  0.3041E+07
  0.2176E+07
  0.4283E+07
  0.8303E+07
  0.2397E+07
  0.2031E+07
  0.1393E+07
  0.6538E+07
  0.1492E+08
  0.6638E+07
  0.2155E+07
  0.7378E+07
  0.5392E+07
  0.2001E+07
  0.2707E+08
  0.2418E+07
  0.7689E+07
  0.4074E+07
  0.8906E+07
  0.2332E+07
  0.1346E+08
  0.8728E+07
  0.4157E+07
  0.1471E+07
  0.6503E+07
  0.2649E+07
  0.3284E+07
  0.1489E+08
  0.3269E+07
  0.2727E+07
  0.4617E+07
  0.7231E+07
  0.5925E+07
  0.2539E+08
  0.7632E+07
  0.4158E+07
  0.1082E+08
  0.2700E+07
  0.1283E+05
  0.1853E+05
  0.1648E+07
  0.4082E+07
  0.2200E+07
  0.1620E+08
  0.7207E+07
  0.4079E+08
  0.2920E+07
  0.2300E+08
  0.1053E+08
  0.2059E+07
  0.4152E+07
  0.7818E+07
  0.2997E+07
  0.2307E+07
  0.1825E+08
  0.2110E+07
  0.2183E+07
  0.8964E+07
  0.3939E+07
  0.4887E+07
  0.3743E+07
  0.2598E+08
  0.2932E+08
  0.3114E+07
  0.2949E+07
  0.1069E+08
  0.1811E+07
  0.5064E+07
  0.8563E+07
  0.3075E+05
  0.1131E+07
  0.1675E+08
  0.8825E+07
  0.1666E+08
  0.2592E+07
  0.9089E+07
  0.1461E+08
  0.3710E+07
  0.9741E+07
  0.4826E+07
  0.2982E+07
  0.5047E+07
  0.1237E+08
  0.2214E+08
  0.2850E+07
  0.1142E+08
  0.2492E+07
  0.1743E+08
  0.4195E+07
  0.3716E+07
  0.2134E+07
  0.9108E+07
  0.1296E+08
  0.2548E+07
  0.4871E+07
  0.2280E+08
  0.7030E+07
  0.1498E+07
  0.4959E+07
  0.1635E+08
  0.6170E+07
  0.4058E+07
  0.2891E+07
  0.1712E+08
  0.3247E+07
  0.5728E+07
  0.7882E+07
  0.2703E+07
  0.5096E+08
  0.8533E+07
  0.6676E+07
  0.1167E+08
  0.5135E+07
  0.2155E+07
  0.1644E+07
  0.8955E+06
  0.8421E+07
  0.4233E+07
  0.1708E+08
  0.2918E+07
  0.1045E+08
  0.3115E+07
  0.2636E+07
  0.1925E+07
  0.2712E+08
  0.4066E+07
  0.1708E+07
  0.1936E+08
  0.2222E+07
  0.4465E+07
  0.2967E+05
  0.2464E+07
  0.2796E+07
  0.4589E+07
  0.3824E+07
  0.6127E+07
  0.2431E+08
  0.1346E+07
  0.3609E+07
  0.1827E+08
  0.1646E+07
  0.1946E+07
  0.5364E+07
  0.1498E+08
  0.2180E+07
  0.1467E+08
  0.1082E+08
  0.1067E+08
  0.1423E+07
  0.2469E+07
  0.2551E+07
  0.4468E+07
  0.3117E+07
  0.1630E+08
  0.2063E+07
  0.1433E+08
  0.8766E+07
  0.1643E+07
  0.4451E+07
  0.4448E+07
  0.2863E+07
  0.7376E+07
  0.3953E+07
  0.8663E+07
  0.3752E+07
  0.3418E+08
  0.2546E+07
  0.2467E+07
  0.8807E+07
  0.4851E+07
  0.7774E+07
  0.5415E+07
  0.1635E+08
  0.2904E+07
  0.4817E+07
  0.2086E+08
  0.3900E+07
  0.1176E+08
  0.1366E+07
  0.3787E+07
  0.1060E+08
  0.1862E+07
  0.1130E+08
  0.1550E+08
  0.5624E+07
  0.2720E+07
  0.4615E+07
  0.2467E+07
  0.3277E+07
  0.2816E+07
  0.6495E+07
  0.2848E+07
  0.7202E+04
  0.7877E+07
  0.4773E+07
  0.1998E+07
  0.8485E+07
  0.7493E+07
  0.4660E+07
  0.1216E+08
  0.2531E+07
  0.1956E+07
  0.9709E+07
  0.2348E+07
  0.4570E+08
  0.9254E+07
  0.1543E+07
  0.4583E+07
  0.4123E+08
  0.4182E+07
  0.3090E+07
  0.2137E+08
  0.1821E+07
  0.4050E+07
  0.2277E+07
  0.2496E+08
  0.2708E+07
  0.1794E+08
  0.6997E+07
  0.5589E+07
  0.3151E+07
  0.1953E+08
  0.8822E+07
  0.7554E+07
  0.1127E+05
  0.1102E+08
  0.7703E+07
  0.7723E+07
  0.2586E+07
  0.1147E+08
  0.1673E+07
  0.2072E+08
  0.4568E+07
  0.6120E+07
  0.2214E+07
  0.3085E+07
  0.5655E+07
  0.8894E+07
  0.7049E+07
  0.7445E+07
  0.2794E+07
  0.2604E+07
  0.2459E+07
  0.3737E+07
  0.1975E+08
  0.4035E+07
  0.4247E+07
  0.8431E+07
  0.2129E+07
  0.1863E+07
  0.1267E+08
  0.1099E+08
  0.3897E+07
  0.3558E+07
  0.1662E+08
  0.4468E+07
  0.1674E+07
  0.4611E+07
  0.2630E+07
  0.5069E+08
  0.5276E+07
  0.1197E+08
  0.2271E+08
  0.7446E+07
  0.2499E+08
  0.2550E+07
  0.4391E+07
  0.1921E+08
  0.1995E+07
  0.1308E+08
  0.2206E+08
  0.1085E+08
  0.2207E+07
  0.1789E+07
  0.1222E+08
  0.8338E+07
  0.2624E+08
  0.4456E+07
  0.3524E+07
  0.1845E+07
  0.9896E+07
  0.2507E+07
  0.4814E+07
  0.7548E+04
  0.3947E+07
  0.1964E+07
  0.6023E+07
  0.3236E+07
  0.9231E+07
  0.1376E+08
  0.1993E+07
  0.4145E+07
  0.4199E+07
  0.3529E+07
  0.3934E+07
  0.5616E+07
  0.3734E+07
  0.2004E+07
  0.4649E+07
  0.2732E+07
  0.8037E+07
  0.2269E+07
  0.3045E+07
  0.7450E+07
  0.4446E+07
  0.7307E+07
  0.4885E+07
  0.2610E+08
  0.4442E+08
  0.1190E+08
  0.2736E+07
  0.1905E+07
  0.3900E+07
  0.2403E+07
  0.6974E+07
  0.1995E+08
  0.1632E+08
  0.5341E+07
  0.1756E+07
  0.9309E+07
  0.6142E+07
  0.8901E+07
  0.8827E+07
  0.1327E+08
  0.2757E+07
  0.3452E+07
  0.1443E+08
  0.6289E+07
  0.1816E+07
  0.8917E+07
  0.2232E+07
  0.1518E+08
  0.2675E+07
  0.1743E+08
  0.3450E+07
  0.2284E+08
  0.6496E+07
  0.3071E+08
  0.2194E+07
  0.1877E+08
  0.2142E+07
  0.6495E+07
  0.1103E+08
  0.1238E+08
  0.2334E+08
  0.2412E+07
  0.8605E+04
  0.2045E+05
  0.5980E+07
  0.1687E+07
  0.1111E+08
  0.4696E+07
  0.2865E+08
  0.7600E+07
  0.1588E+07
  0.1557E+07
  0.1347E+08
  0.2836E+07
  0.3059E+08
  0.2335E+07
  0.1886E+07
  0.1602E+08
  0.5422E+07
  0.2464E+07
  0.5427E+07
  0.5625E+07
  0.6172E+07
  0.1121E+08
  0.3071E+07
  0.6084E+07
  0.1149E+08
  0.4152E+07
  0.3139E+07
  0.2437E+07
  0.2063E+07
  0.5960E+07
  0.4545E+07
  0.6762E+07
  0.1630E+08
  0.4394E+07
  0.6458E+07
  0.2562E+07
  0.3171E+07
  0.2746E+07
  0.6622E+07
  0.1347E+08
  0.6311E+07
  0.1175E+08
  0.3092E+07
  0.8173E+07
  0.2314E+08
  0.3019E+07
  0.1324E+07
  0.8758E+07
  0.2748E+08
  0.3793E+07
  0.3673E+07
  0.2540E+07
  0.5502E+07
  0.8702E+07
  0.4355E+07
  0.4151E+07
  0.3775E+07
  0.1834E+07
  0.4682E+07
  0.3522E+07
  0.2367E+07
  0.2190E+07
  0.1179E+05
  0.3230E+05
  0.2176E+07
  0.2112E+07
  0.3208E+07
  0.5561E+07
  0.1807E+07
  0.1316E+08
  0.1948E+07
  0.3149E+07
  0.2729E+07
  0.1488E+08
  0.3241E+07
  0.7174E+07
  0.1477E+08
  0.3761E+07
  0.5386E+07
  0.4292E+07
  0.3085E+07
  0.7610E+07
  0.2037E+08
  0.4905E+07
  0.1490E+08
  0.1618E+08
  0.1470E+08
  0.2016E+08
  0.4374E+07
  0.7233E+07
  0.1420E+08
  0.3776E+07
  0.8164E+04
  0.1008E+08
  0.6144E+07
  0.1875E+08
  0.2675E+08
  0.1093E+08
  0.6560E+07
  0.4283E+07
  0.1166E+08
  0.1701E+08
  0.6944E+07
  0.2903E+07
  0.4278E+07
  0.4072E+07
  0.2826E+07
  0.1116E+08
  0.1086E+08
  0.2624E+07
  0.2055E+08
  0.3026E+08
  0.4398E+07
  0.2097E+07
  0.2102E+07
  0.4005E+07
  0.3261E+07
  0.2723E+07
  0.4569E+07
  0.7413E+07
  0.1288E+08
  0.7191E+07
  0.1323E+08
  0.5555E+07
  0.4533E+07
  0.7517E+07
  0.2634E+07
  0.1453E+08
  0.2146E+07
  0.5223E+07
  0.3965E+07
  0.2071E+07
  0.1985E+08
  0.5887E+07
  0.6736E+07
  0.9594E+07
  0.2332E+07
  0.4164E+07
  0.2957E+08
  0.9415E+07
  0.3540E+07
  0.3108E+07
  0.4880E+07
  0.3482E+07
  0.1863E+08
  0.2963E+07
  0.5102E+07
  0.2051E+07
  0.7240E+07
  0.2282E+07
  0.1540E+07
  0.5466E+07
  0.3388E+07
  0.6801E+07
  0.5352E+07
  0.2063E+07
  0.3195E+07
  0.3904E+07
  0.1570E+07
  0.2929E+08
  0.4187E+08
  0.2721E+08
  0.1812E+08
  0.1571E+08
  0.9704E+07
  0.4018E+07
  0.2557E+07
  0.2049E+07
  0.1664E+08
  0.6262E+07
  0.7780E+07
  0.2659E+07
  0.1800E+08
  0.3366E+07
  0.1430E+08
  0.3276E+07
  0.9304E+07
  0.2277E+08
  0.4016E+07
  0.1698E+08
  0.2134E+07
  0.1288E+08
  0.2275E+07
  0.5880E+07
  0.9673E+04
  0.2985E+05
  0.5307E+07
  0.2517E+07
  0.1589E+08
  0.7933E+07
  0.9942E+07
  0.5255E+07
  0.5592E+07
  0.2314E+07
  0.1383E+08
  0.1937E+07
  0.6194E+07
  0.6410E+07
  0.3877E+07
  0.3337E+08
  0.1851E+07
  0.1545E+07
  0.3037E+07
  0.5378E+07
  0.1794E+07
  0.1455E+08
  0.2166E+07
  0.6099E+07
  0.4452E+07
  0.2277E+07
  0.7388E+06
  0.7123E+07
  0.1806E+07
  0.3175E+07
  0.3153E+07
  0.1302E+05
  0.8990E+07
  0.4770E+07
  0.7240E+07
  0.2183E+08
  0.1987E+07
  0.3348E+07
  0.1751E+07
  0.2701E+08
  0.6057E+07
  0.2741E+07
  0.5399E+07
  0.1881E+08
  0.5411E+07
  0.1581E+08
  0.3524E+07
  0.4538E+07
  0.4121E+07
  0.7967E+07
  0.1871E+07
  0.1026E+08
  0.7514E+07
  0.1077E+08
  0.3433E+08
  0.1303E+08
  0.2026E+07
  0.4663E+07
  0.1457E+08
  0.1099E+07
  0.1173E+08
  0.3171E+07
  0.8934E+07
  0.1112E+08
  0.1848E+08
  0.2908E+05
  0.1175E+08
  0.3334E+07
  0.3647E+07
  0.2497E+07
  0.1503E+08
  0.4395E+07
  0.1042E+08
  0.4432E+07
  0.2900E+07
  0.1416E+08
  0.2776E+07
  0.2530E+07
  0.5809E+08
  0.4276E+07
  0.1615E+08
  0.6396E+07
  0.2620E+08
  0.6361E+07
  0.8967E+07
  0.2604E+07
  0.3257E+07
  0.3333E+07
  0.1534E+07
  0.5340E+07
  0.2273E+07
  0.6875E+07
  0.1897E+07
  0.4246E+07
  0.4620E+07
  0.1394E+08
  0.3906E+07
  0.1131E+08
  0.1179E+08
  0.5100E+07
  0.9925E+07
  0.6138E+07
  0.2590E+07
  0.1870E+08
  0.4318E+07
  0.3508E+07
  0.3867E+07
  0.3549E+07
  0.1084E+08
  0.2898E+08
  0.2148E+07
  0.2713E+07
  0.2698E+07
  0.2843E+07
  0.6681E+07
  0.3306E+07
  0.3697E+07
  0.1785E+08
  0.3909E+07
  0.3194E+07
  0.1447E+08
  0.4700E+07
  0.2145E+07
  0.2544E+07
  0.4077E+07
  0.9655E+04
  0.1847E+05
  0.5057E+07
  0.2218E+07
  0.2850E+07
  0.1348E+08
  0.3757E+07
  0.5106E+07
  0.6531E+07
  0.2889E+07
  0.1216E+08
  0.6685E+07
  0.3242E+07
  0.1282E+08
  0.3222E+07
  0.1209E+08
  0.4383E+07
  0.2490E+08
  0.9275E+07
  0.2964E+07
  0.1344E+08
  0.1720E+08
  0.8254E+07
  0.9299E+07
  0.8599E+07
  0.1953E+07
  0.7843E+07
  0.8679E+07
  0.2413E+07
  0.1369E+08
  0.2137E+07
  0.4065E+07
  0.1662E+08
  0.4484E+07
  0.2978E+08
  0.1502E+07
  0.2620E+08
  0.1389E+08
  0.1608E+07
  0.1671E+08
  0.1757E+07
  0.2092E+08
  0.1916E+08
  0.1081E+07
  0.5748E+07
  0.3501E+07
  0.2172E+07
  0.2963E+07
  0.2256E+07
  0.1830E+08
  0.4114E+07
  0.3644E+08
  0.6027E+07
  0.2782E+07
  0.8675E+07
  0.2524E+07
  0.1680E+08
  0.2307E+08
  0.6907E+07
  0.1323E+07
  0.3539E+07
  0.5817E+07
  0.3223E+05
  0.1149E+08
  0.1893E+08
  0.1590E+08
  0.1207E+07
  0.4584E+07
  0.5444E+07
  0.2811E+08
  0.2107E+07
  0.8573E+07
  0.2043E+07
  0.9831E+07
  0.1507E+08
  0.6130E+07
  0.2170E+08
  0.1753E+07
  0.1046E+08
  0.5965E+07
  0.1748E+07
  0.4070E+08
  0.1467E+08
  0.2407E+07
  0.1727E+07
  0.3133E+07
  0.1195E+08
  0.1979E+07
  0.1449E+07
  0.2777E+08
  0.8113E+07
  0.6588E+07
  0.2181E+07
  0.5105E+07
  0.8908E+07
  0.4437E+07
  0.8824E+07
  0.2678E+07
  0.4586E+07
  0.2663E+08
  0.3310E+07
  0.1515E+08
  0.3048E+07
  0.2636E+07
  0.4982E+07
  0.1968E+07
  0.2055E+08
  0.4015E+07
  0.7563E+07
  0.5194E+07
  0.2049E+07
  0.6111E+07
  0.2433E+07
  0.6593E+08
  0.1733E+07
  0.9803E+07
  0.1791E+07
  0.6341E+07
  0.2790E+07
  0.6424E+07
  0.5407E+07
  0.2037E+07
  0.1381E+08
  0.1714E+08
  0.7539E+04
  0.1866E+08
  0.4244E+07
  0.6380E+07
  0.6689E+07
  0.2446E+07
  0.9300E+07
  0.8746E+07
  0.8586E+07
  0.2459E+07
  0.6049E+07
  0.5353E+07
  0.3888E+08
  0.3412E+07
  0.2341E+07
  0.5592E+07
  0.1708E+08
  0.3614E+08
  0.2425E+07
  0.1924E+08
  0.2004E+07
  0.1462E+08
  0.9834E+07
  0.2505E+07
  0.2000E+08
  0.3065E+07
  0.3222E+07
  0.2057E+08
  0.1938E+07
  0.9109E+07
  0.2780E+07
  0.2270E+08
  0.1801E+05
  0.8965E+07
  0.1503E+07
  0.1179E+08
  0.3541E+08
  0.4584E+07
  0.2094E+07
  0.3620E+07
  0.1643E+08
  0.1240E+08
  0.1417E+08
  0.7133E+07
  0.3143E+07
  0.1065E+08
  0.3857E+07
  0.1614E+07
  0.2549E+07
  0.1605E+07
  0.9705E+07
  0.1894E+07
  0.2185E+07
  0.1940E+07
  0.3897E+07
  0.2203E+07
  0.1376E+08
  0.5701E+07
  0.2383E+07
  0.4278E+07
  0.4124E+07
  0.1229E+05
  0.4337E+05
  0.4512E+07
  0.4657E+07
  0.6748E+07
  0.3620E+07
  0.2686E+08
  0.1451E+08
  0.3913E+07
  0.2034E+07
  0.2425E+08
  0.1426E+07
  0.2361E+08
  0.1646E+07
  0.1914E+08
  0.3882E+07
  0.2174E+08
  0.3082E+07
  0.1166E+08
  0.1699E+08
  0.3056E+07
  0.1530E+08
  0.1725E+07
  0.1641E+08
  0.2457E+07
  0.1694E+08
  0.2920E+07
  0.3093E+07
  0.6546E+07
  0.1063E+08
  0.4115E+07
  0.1366E+08
  0.1784E+05
  0.8322E+07
  0.2871E+07
  0.4636E+07
  0.1992E+08
  0.2655E+07
  0.4590E+07
  0.8581E+07
  0.3382E+07
  0.1695E+08
  0.2054E+07
  0.1675E+07
  0.4920E+07
  0.1168E+07
  0.9443E+07
  0.6451E+07
  0.3133E+07
  0.3082E+07
  0.6036E+07
  0.2232E+07
  0.3709E+07
  0.2804E+07
  0.5890E+07
  0.1936E+07
  0.2694E+07
  0.1414E+08
  0.2706E+07
  0.2141E+08
  0.1937E+07
  0.2399E+07
  0.1703E+07
  0.1184E+08
  0.8368E+07
  0.6818E+07
  0.3900E+07
  0.4503E+07
  0.5462E+07
  0.3839E+07
  0.1209E+07
  0.3816E+07
  0.6083E+07
  0.1330E+08
  0.2549E+07
  0.1421E+08
  0.4071E+07
  0.3993E+07
  0.2846E+07
  0.2895E+07
  0.2464E+08
  0.7899E+07
  0.4846E+07
  0.1619E+08
  0.4456E+07
  0.8775E+07
  0.1996E+07
  0.2672E+08
  0.1431E+07
  0.8329E+06
  0.4852E+07
  0.1830E+07
  0.5550E+07
  0.1182E+08
  0.1747E+07
  0.2001E+05
  0.1223E+08
  0.4108E+07
  0.4468E+07
  0.1953E+08
  0.3969E+07
  0.1231E+08
  0.4735E+07
  0.1525E+07
  0.6325E+07
  0.5060E+07
  0.3028E+08
  0.2065E+07
  0.1760E+08
  0.3232E+07
  0.2192E+08
  0.2927E+07
  0.4756E+07
  0.3379E+07
  0.2504E+07
  0.6886E+07
  0.2146E+08
  0.2198E+07
  0.1296E+08
  0.9362E+07
  0.2441E+07
  0.9370E+07
  0.2331E+07
  0.1781E+08
  0.2737E+08
  0.1732E+07
  0.1138E+05
  0.2982E+08
  0.6819E+07
  0.1281E+08
  0.2332E+08
  0.1399E+08
  0.4811E+07
  0.1485E+08
  0.3666E+07
  0.1488E+08
  0.2650E+07
  0.2523E+07
  0.1014E+08
  0.5957E+07
  0.5337E+07
  0.2701E+07
  0.4156E+07
  0.2803E+07
  0.1400E+08
  0.2356E+07
  0.1516E+08
  0.8717E+06
  0.2411E+07
  0.1656E+08
  0.4076E+07
  0.2819E+07
  0.1799E+07
  0.1698E+07
  0.1059E+08
  0.5325E+07
  0.2443E+07
  0.6377E+07
  0.2402E+05
  0.5199E+07
  0.1173E+07
  0.1267E+07
  0.3893E+07
  0.2047E+07
  0.1329E+08
  0.1009E+07
  0.4167E+07
  0.3757E+08
  0.5666E+07
  0.3151E+07
  0.2614E+07
  0.1940E+08
  0.4557E+07
  0.2996E+07
  0.4574E+07
  0.1876E+08
  0.1356E+07
  0.2959E+07
  0.3821E+08
  0.3311E+07
  0.3680E+07
  0.3259E+07
  0.1962E+08
  0.1157E+08
  0.3179E+07
  0.1072E+08
  0.2392E+07
  0.2486E+07
  0.3958E+07
  0.1182E+05
  0.3143E+05
  0.4932E+07
  0.2410E+07
  0.3910E+07
  0.3344E+07
  0.5255E+07
  0.3006E+08
  0.6147E+07
  0.3248E+07
  0.4296E+07
  0.6059E+07
  0.1829E+08
  0.2517E+07
  0.1137E+08
  0.4149E+07
  0.3466E+08
  0.1269E+07
  0.1034E+08
  0.3283E+07
  0.1152E+08
  0.1584E+08
  0.2852E+07
  0.8158E+07
  0.1319E+08
  0.3627E+07
  0.3236E+07
  0.4146E+07
  0.2454E+07
  0.4923E+07
  0.5962E+07
  0.7785E+07
  0.1304E+08
  0.8904E+06
  0.2845E+08
  0.1222E+08
  0.4204E+07
  0.5155E+07
  0.2404E+07
  0.4267E+07
  0.1841E+08
  0.7746E+07
  0.1269E+08
  0.5202E+07
  0.2207E+07
  0.9432E+07
  0.4494E+07
  0.2214E+08
  0.8681E+07
  0.3458E+07
  0.1060E+08
  0.5835E+07
  0.2525E+07
  0.1769E+08
  0.2424E+07
  0.2073E+08
  0.1263E+08
  0.2219E+07
  0.9165E+07
  0.1115E+08
  0.1978E+07
  0.3802E+07
  0.1164E+05
  0.3180E+05
  0.1900E+07
  0.2044E+08
  0.1042E+08
  0.2453E+08
  0.4079E+07
  0.2083E+08
  0.8031E+07
  0.2375E+07
  0.3670E+07
  0.2752E+07
  0.1254E+08
  0.5700E+07
  0.2509E+07
  0.8968E+07
  0.5346E+07
  0.2434E+07
  0.2057E+08
  0.3361E+07
  0.2367E+08
  0.9269E+07
  0.3496E+07
  0.1010E+08
  0.1312E+08
  0.5410E+07
  0.2530E+07
  0.2136E+07
  0.3134E+08
  0.5763E+07
  0.6513E+07
  0.1440E+08
  0.1713E+08
  0.9713E+07
  0.3396E+07
  0.5303E+07
  0.4479E+07
  0.5583E+07
  0.2322E+07
  0.4837E+07
  0.1264E+08
  0.6733E+07
  0.2913E+07
  0.2812E+07
  0.1101E+08
  0.3163E+07
  0.1203E+08
  0.1605E+07
  0.8221E+07
  0.2033E+07
  0.2454E+07
  0.6003E+07
  0.2335E+07
  0.1392E+07
  0.2829E+07
  0.5266E+07
  0.2491E+08
  0.9152E+07
  0.4773E+07
  0.2572E+07
  0.1776E+07
  0.4217E+07
  0.1194E+05
  0.3230E+05
  0.4080E+07
  0.3022E+07
  0.8438E+07
  0.3115E+07
  0.6332E+07
  0.1486E+08
  0.3102E+07
  0.1266E+08
  0.2139E+08
  0.1785E+08
  0.4974E+07
  0.5777E+07
  0.4643E+07
  0.1968E+07
  0.3485E+08
  0.2249E+07
  0.2414E+07
  0.6525E+07
  0.1681E+08
  0.2023E+07
  0.1620E+08
  0.1558E+07
  0.1457E+08
  0.2320E+07
  0.2892E+07
  0.1430E+08
  0.1822E+07
  0.1175E+08
  0.6463E+07
  0.2163E+07
  0.7246E+04
  0.1652E+08
  0.3429E+07
  0.1405E+08
  0.3156E+07
  0.5530E+07
  0.1266E+07
  0.3685E+07
  0.1047E+08
  0.4754E+07
  0.4849E+07
  0.1780E+07
  0.2043E+08
  0.1553E+08
  0.1286E+08
  0.9120E+07
  0.2158E+07
  0.9919E+07
  0.1738E+07
  0.9888E+06
  0.9517E+07
  0.2381E+07
  0.7613E+07
  0.2049E+07
  0.6656E+07
  0.3926E+07
  0.2072E+07
  0.2896E+07