# vtk DataFile Version 3.0
rivers
ASCII
DATASET UNSTRUCTURED_GRID
POINTS       1882 float
           0.000           0.000           0.000
        1600.000           0.000           0.000
        3200.000           0.000           0.000
        4800.000           0.000           0.000
        6400.000           0.000           0.000
        8000.000           0.000           0.000
        9600.000           0.000           0.000
       11200.000           0.000           0.000
       12800.000           0.000           0.000
       14400.001           0.000           0.000
       16000.000           0.000           0.000
       17600.000           0.000           0.000
       19200.000           0.000           0.000
       20799.999           0.000           0.000
       22400.000           0.000           0.000
       24000.001           0.000           0.000
       25599.999           0.000           0.000
       27200.000           0.000           0.000
       28800.001           0.000           0.000
       30400.000           0.000           0.000
       32000.000           0.000           0.000
       33599.999           0.000           0.000
       35200.000           0.000           0.000
       36800.001           0.000           0.000
       38399.999           0.000           0.000
       40000.000           0.000           0.000
       41599.998           0.000           0.000
       43200.002           0.000           0.000
       44800.000           0.000           0.000
       46399.999           0.000           0.000
       48000.002           0.000           0.000
       49600.000           0.000           0.000
       51199.999           0.000           0.000
       52800.002           0.000           0.000
       54400.001           0.000           0.000
       55999.999           0.000           0.000
       57600.002           0.000           0.000
       59200.001           0.000           0.000
       60799.999           0.000           0.000
       62399.998           0.000           0.000
       64000.001           0.000           0.000
       65599.999           0.000           0.000
       67199.998           0.000           0.000
       68800.001           0.000           0.000
       70400.000           0.000           0.000
       71999.998           0.000           0.000
       73600.001           0.000           0.000
       75200.000           0.000           0.000
       76799.998           0.000           0.000
       78400.002           0.000           0.000
       80000.000           0.000           0.000
           0.000        1600.000           0.000
        1820.535        1836.129         154.472
        4436.497        1560.645         194.066
        8231.839        1585.959         172.370
       11192.297        1979.624         225.054
       14535.388        1860.001         135.149
       17224.315        1919.917         208.942
       20899.237        1802.853         213.934
       23731.335        1792.943         177.377
       27507.238        1603.221         179.807
       30065.602        1613.570         272.262
       33371.579        1994.991         145.004
       37099.539        1414.823         218.618
       38196.713        1837.356         135.124
       41840.942        1855.796         200.650
       43418.644        1867.336         129.901
       46734.950        1319.882         238.066
       49975.028        1831.460         282.966
       52954.322        1538.422         210.744
       55816.240        1531.934         189.118
       59004.449        1641.677         186.584
       60471.826        1510.939         207.473
       63784.513        1656.536         279.538
       67301.210        1771.228         241.004
       70381.695        1920.216         270.467
       72217.113        1448.806         145.582
       75069.462        1621.662         190.399
       78696.327        1722.356         189.525
       80000.000        1600.000           0.000
           0.000        3200.000           0.000
        3274.399        3217.174         302.260
        5160.666        3300.186         400.497
        6043.012        3262.445         213.389
        9502.865        3552.908         400.576
       11056.006        2840.019         400.576
       14606.628        2840.755         201.496
       17562.634        3511.308         249.436
       18833.142        3539.080         150.083
       22026.411        2868.051         226.692
       25600.029        2863.835         221.842
       27192.156        3106.980         400.232
       30375.600        2888.881         400.232
       33224.678        2857.386         221.397
       36841.038        3085.085         237.888
       40238.304        3524.647         245.969
       43557.179        3128.631         202.698
       46228.872        2830.415         226.667
       48146.017        3166.706         271.861
       51153.215        2952.745         216.377
       53124.514        2981.904         400.022
       56001.007        3429.944         400.304
       59307.581        3225.477         400.255
       62124.444        3154.870         245.703
       64132.610        2904.590         400.422
       67439.924        3451.420         400.243
       68998.763        3472.006         400.363
       72219.436        2879.026         240.628
       75532.535        3132.944         400.521
       78652.387        3551.841         167.261
       80000.000        3200.000           0.000
           0.000        4800.000           0.000
        1400.060        4439.660         181.559
        4786.648        4655.285         400.498
        8308.484        5116.135         400.426
       11454.778        4403.585         400.634
       14098.429        4923.032         400.250
       17912.789        5043.475         273.089
       20446.875        4859.061         265.844
       24108.597        4895.159         400.720
       27234.832        4431.193         400.276
       28696.423        4449.033         400.232
       32196.694        4589.490         400.517
       33867.228        4797.771         400.510
       34933.129        4760.558         400.510
       38067.139        5053.208         341.617
       41605.852        4581.133         348.255
       44854.687        5021.321         400.142
       48175.269        4416.823         400.182
       51163.202        5122.950         400.166
       54186.876        4703.411         400.272
       56317.818        4828.699         400.273
       59169.326        5108.954         400.256
       62536.999        4516.819         400.423
       65848.099        4445.450         400.243
       68694.276        4766.024         400.384
       71946.222        4752.098         400.145
       75433.121        5067.460         400.487
       78033.243        4664.320         199.720
       80000.000        4800.000           0.000
           0.000        6400.000           0.000
        2841.623        6773.290         212.051
        6245.685        6376.243         400.449
        7744.385        6030.238         400.426
       11368.686        6592.994         400.353
       14270.010        6704.916         400.343
       17330.427        6370.488         400.490
       19571.144        6573.041         400.472
       22641.152        6627.002         400.728
       23763.572        6012.529         400.718
       27463.089        6427.221         400.234
       30273.002        6504.167         400.237
       33884.178        6077.220         400.510
       35390.886        6255.305         400.510
       38075.664        6205.118         400.384
       40048.604        6389.405         400.380
       43255.311        6307.072         400.246
       46126.564        6231.346         400.142
       48285.057        6596.744         400.142
       51294.080        6157.575         400.161
       54250.249        6543.358         400.288
       57921.865        6224.397         400.386
       59558.312        6004.572         400.256
       62425.662        6132.109         400.423
       65724.696        6341.122         400.252
       68956.079        6674.843         400.435
       72380.520        6490.972         400.244
       75318.037        6459.550         400.487
       78160.955        6114.578         190.969
       80000.000        6400.000           0.000
           0.000        8000.000           0.000
        3576.129        8217.635         199.925
        5061.593        7652.754         283.369
        8105.944        7856.844         400.426
       11121.498        7830.817         400.354
       14531.786        8256.985         400.280
       16036.950        7761.051         400.304
       19087.239        8020.414         400.471
       22626.171        7850.784         400.571
       25653.785        8135.625         400.416
       28733.316        8014.857         400.231
       30647.917        7622.140         400.231
       31669.813        8123.016         400.231
       35544.551        8083.612         400.556
       38771.621        7743.567         400.366
       41941.639        8315.419         400.301
       44649.095        8053.831         400.160
       48005.993        8300.872         400.142
       51584.272        8303.210         400.309
       52951.115        7723.006         400.309
       55834.828        8389.314         400.326
       58839.904        7674.993         400.256
       60484.772        8202.290         400.259
       63784.723        8145.830         400.467
       67326.420        8175.747         400.435
       68571.734        8073.207         400.435
       72193.925        8373.058         400.584
       73714.578        7878.720         400.499
       77044.523        8185.581         232.803
       78448.742        7636.455         132.842
       80000.000        8000.000           0.000
           0.000        9600.000           0.000
[...]
POINT_DATA       1882
SCALARS discharge float 1
LOOKUP_TABLE default
  0.9999E+04
  0.1870E+07
  0.1317E+08
  0.1987E+07
  0.1270E+08
  0.1173E+07
  0.1258E+08
  0.1435E+07
  0.3324E+07
  0.1339E+07
  0.1807E+08
  0.2195E+07
  0.2695E+08
  0.1378E+07
  0.1724E+08
  0.2114E+07
  0.9079E+07
  0.1844E+07
  0.6722E+07
  0.1269E+07
  0.1763E+08
  0.2026E+07
  0.5166E+07
  0.1053E+07
  0.1739E+07
  0.2429E+08
  0.2034E+07
  0.5478E+07
  0.2219E+08
  0.1368E+07
  0.1045E+08
  0.1763E+07
  0.9288E+07
  0.1705E+07
  0.4830E+07
  0.1040E+07
  0.1165E+08
  0.4207E+07
  0.1727E+07
  0.8346E+07
  0.1180E+07
  0.8599E+07
  0.1169E+07
  0.5689E+07
  0.1144E+08
  0.8881E+06
  0.1994E+07
  0.1039E+07
  0.7774E+07
  0.1090E+07
  0.7119E+04
  0.3300E+05
  0.7071E+07
  0.2941E+07
  0.4380E+07
  0.2722E+07
  0.1193E+08
  0.2546E+07
  0.3287E+07
  0.4675E+07
  0.4005E+07
  0.1246E+07
  0.9766E+07
  0.2384E+07
  0.1396E+08
  0.3189E+07
  0.1164E+08
  0.9109E+06
  0.1320E+07
  0.2349E+07
  0.4610E+07
  0.4051E+07
  0.2363E+07
  0.1036E+07
  0.2496E+07
  0.1211E+07
  0.9205E+07
  0.4780E+07
  0.2746E+07
  0.7547E+04
  0.3209E+05
  0.2063E+07
  0.4553E+07
  0.6994E+07
  0.2658E+07
  0.7918E+07
  0.7817E+07
  0.4198E+07
  0.2042E+08
  0.4402E+07
  0.4027E+07
  0.1749E+07
  0.3315E+07
  0.4301E+07
  0.8750E+07
  0.4625E+07
  0.9428E+07
  0.4968E+07
  0.2118E+07
  0.5618E+07
  0.6145E+07
  0.1145E+07
  0.2701E+08
  0.4138E+07
  0.2034E+08
  0.9174E+06
  0.7479E+07
  0.6070E+07
  0.1905E+07
  0.3833E+07
  0.2762E+07
  0.1907E+05
  0.6066E+07
  0.2313E+07
  0.1367E+07
  0.1634E+07
  0.1204E+08
  0.4281E+07
  0.7309E+07
  0.1947E+07
  0.2862E+07
  0.1748E+08
  0.2935E+07
  0.4630E+07
  0.6739E+07
  0.3414E+07
  0.1744E+07
  0.3415E+07
  0.3348E+07
  0.2133E+07
  0.1733E+08
  0.8954E+07
  0.1995E+08
  0.1436E+08
  0.1458E+08
  0.2171E+07
  0.1209E+08
  0.9761E+07
  0.2847E+07
  0.1077E+08
  0.1468E+08
  0.4873E+07
  0.2654E+07
  0.2407E+08
  0.9542E+07
  0.2764E+07
  0.1674E+07
  0.4241E+07
  0.1475E+07
  0.1420E+08
  0.2780E+07
  0.3786E+07
  0.3613E+07
  0.1988E+08
  0.2779E+07
  0.1400E+08
  0.2798E+07
  0.8209E+07
  0.2871E+08
  0.8282E+07
  0.2139E+07
  0.1663E+07
  0.1499E+08
  0.8975E+07
  0.6552E+07
  0.5106E+07
  0.2305E+07
  0.1467E+07
  0.4060E+07
  0.8153E+07
  0.1347E+08
  0.9194E+07
  0.6679E+07
  0.8603E+07
  0.3701E+07
  0.2114E+07
  0.3846E+07
  0.1385E+08
  0.1060E+08
  0.2193E+07
  0.1366E+08
  0.4303E+08
  0.1534E+08
  0.3488E+07
  0.3519E+07
  0.2122E+07
  0.1565E+08
  0.4364E+07
  0.1183E+07
  0.2797E+07
  0.5652E+07
  0.1030E+08
  0.5628E+07
  0.3485E+07
  0.3848E+07
  0.1012E+08
  0.1593E+07
  0.8098E+07
  0.6051E+07
  0.8135E+07
  0.1538E+07
  0.3244E+05
  0.7413E+07
  0.1972E+07
  0.5379E+07
  0.1131E+08
  0.1255E+08
  0.1956E+07
  0.3013E+07
  0.9013E+07
  0.1769E+08
  0.4233E+07
  0.7245E+07
  0.3833E+07
  0.2763E+07
  0.1474E+08
  0.2823E+07
  0.1102E+08
  0.3656E+07
  0.4883E+07
  0.6993E+07
  0.2549E+08
  0.8381E+07
  0.3741E+07
  0.4249E+07
  0.2453E+07
  0.3289E+07
  0.2585E+08
  0.1790E+07
  0.2434E+07
  0.1522E+07
  0.1241E+05
  0.1464E+08
  0.1918E+07
  0.2231E+07
  0.5000E+08
  0.2318E+07
  0.2252E+08
  0.3421E+07
  0.8823E+07
  0.2830E+07
  0.3878E+07
  0.4452E+07
  0.3025E+07
  0.4462E+07
  0.3301E+08
  0.4595E+07
  0.1834E+07
  0.1798E+08
  0.2896E+07
  0.2444E+07
  0.2064E+07
  0.6048E+07
  0.1185E+08
  0.3922E+08
  0.6973E+07
  0.1828E+08
  0.2796E+07
  0.3291E+07
  0.2315E+08
  0.2801E+07
  0.5494E+07
  0.6078E+07
  0.9925E+04
  0.1262E+08
  0.9755E+06
  0.3128E+07
  0.9013E+07
  0.3395E+08
  0.2370E+08
  0.1108E+08
  0.2703E+07
  0.1452E+07
  0.1349E+08
  0.2712E+08
  0.2802E+07
  0.1589E+08
  0.4146E+07
  0.1577E+08
  0.6191E+07
  0.2335E+07
  0.3578E+07
  0.1915E+08
  0.2379E+07
  0.2990E+07
  0.2577E+08
  0.4626E+07
  0.3841E+07
  0.1065E+08
  0.4792E+07
  0.1955E+07
  0.2551E+07
  0.4049E+07
  0.1398E+08
  0.6139E+07
  0.1696E+08
  0.2253E+07
  0.1205E+08
  0.1786E+05
  0.7959E+07
  0.4957E+07
  0.1537E+08
  0.2857E+08
  0.2570E+07
  0.3196E+07
  0.4110E+07
  0.1249E+08
  0.2777E+07
  0.1957E+07
  0.7989E+07
  0.4569E+08
  0.2323E+07
  0.4350E+07
  0.1325E+08
  0.2082E+07
  0.4467E+07
  0.7173E+07
  0.1442E+08
  0.2429E+08
  0.1371E+08
  0.3363E+07
  0.2261E+07
  0.4271E+07
  0.8366E+07
  0.2497E+07
  0.2298E+07
  0.1510E+07
  0.6794E+07
  0.1564E+08
  0.7257E+07
  0.2238E+07
  0.7376E+07
  0.5452E+07
  0.2389E+07
  0.2760E+08
  0.2563E+07
  0.7587E+07
  0.3952E+07
  0.9102E+07
  0.2505E+07
  0.1342E+08
  0.9115E+07
  0.4247E+07
  0.1483E+07
  0.6630E+07
  0.2799E+07
  0.3354E+07
  0.1521E+08
  0.3371E+07
  0.2783E+07
  0.4632E+07
  0.7413E+07
  0.5960E+07
  0.2588E+08
  0.7527E+07
  0.3991E+07
  0.1034E+08
  0.2825E+07
  0.1294E+05
  0.1868E+05
  0.1693E+07
  0.4056E+07
  0.2244E+07
  0.1650E+08
  0.7706E+07
  0.4199E+08
  0.2970E+07
  0.2336E+08
  0.1045E+08
  0.2517E+07
  0.4244E+07
  0.7527E+07
  0.3261E+07
  0.2356E+07
  0.1883E+08
  0.2152E+07
  0.2229E+07
  0.9064E+07
  0.4021E+07
  0.4984E+07
  0.3782E+07
  0.2635E+08
  0.3023E+08
  0.3098E+07
  0.3282E+07
  0.1064E+08
  0.1823E+07
  0.5739E+07
  0.9321E+07
  0.3115E+05
  0.1172E+07
  0.1634E+08
  0.8991E+07
  0.1696E+08
  0.2647E+07
  0.9273E+07
  0.1491E+08
  0.3884E+07
  0.1036E+08
  0.4633E+07
  0.3294E+07
  0.5066E+07
  0.1296E+08
  0.2295E+08
  0.2996E+07
  0.1166E+08
  0.2725E+07
  0.1771E+08
  0.4282E+07
  0.3791E+07
  0.2160E+07
  0.9256E+07
  0.1353E+08
  0.2514E+07
  0.4686E+07
  0.2297E+08
  0.7107E+07
  0.1501E+07
  0.5283E+07
  0.1707E+08
  0.6871E+07
  0.4334E+07
  0.2952E+07
  0.1731E+08
  0.3023E+07
  0.5837E+07
  0.8088E+07
  0.2826E+07
  0.5190E+08
  0.8734E+07
  0.6834E+07
  0.1217E+08
  0.5664E+07
  0.1673E+07
  0.1657E+07
  0.9207E+06
  0.8780E+07
  0.4321E+07
  0.1735E+08
  0.2889E+07
  0.1064E+08
  0.3193E+07
  0.2654E+07
  0.2092E+07
  0.2742E+08
  0.4155E+07
  0.1770E+07
  0.1852E+08
  0.2545E+07
  0.5201E+07
  0.3015E+05
  0.2359E+07
  0.2316E+07
  0.4678E+07
  0.4022E+07
  0.6569E+07
  0.2520E+08
  0.1484E+07
  0.3686E+07
  0.1837E+08
  0.1786E+07
  0.1998E+07
  0.5220E+07
  0.1521E+08
  0.2404E+07
  0.1385E+08
  0.1103E+08
  0.1090E+08
  0.1526E+07
  0.2519E+07
  0.2739E+07
  0.4342E+07
  0.3125E+07
  0.1646E+08
  0.1925E+07
  0.1466E+08
  0.8978E+07
  0.1671E+07
  0.4384E+07
  0.5183E+07
  0.2877E+07
  0.7659E+07
  0.4198E+07
  0.7816E+07
  0.3773E+07
  0.3464E+08
  0.2649E+07
  0.2519E+07
  0.8984E+07
  0.4585E+07
  0.7576E+07
  0.5195E+07
  0.1671E+08
  0.3586E+07
  0.5086E+07
  0.2073E+08
  0.3192E+07
  0.1202E+08
  0.1395E+07
  0.3796E+07
  0.1090E+08
  0.1884E+07
  0.1151E+08
  0.1592E+08
  0.5922E+07
  0.2985E+07
  0.4623E+07
  0.2477E+07
  0.3360E+07
  0.2865E+07
  0.6264E+07
  0.2861E+07
  0.7249E+04
  0.8455E+07
  0.5311E+07
  0.1901E+07
  0.8540E+07
  0.7621E+07
  0.4515E+07
  0.1235E+08
  0.2913E+07
  0.2002E+07
  0.9936E+07
  0.2681E+07
  0.4773E+08
  0.1021E+08
  0.1583E+07
  0.4636E+07
  0.4147E+08
  0.4279E+07
  0.3160E+07
  0.2111E+08
  0.2017E+07
  0.3980E+07
  0.2342E+07
  0.2554E+08
  0.2739E+07
  0.1845E+08
  0.7448E+07
  0.5500E+07
  0.3143E+07
  0.1910E+08
  0.8490E+07
  0.7987E+07
  0.1134E+05
  0.1121E+08
  0.7872E+07
  0.7699E+07
  0.2657E+07
  0.1147E+08
  0.1903E+07
  0.2152E+08
  0.4997E+07
  0.6262E+07
  0.2267E+07
  0.3157E+07
  0.5982E+07
  0.9164E+07
  0.7107E+07
  0.7586E+07
  0.3521E+07
  0.3055E+07
  0.2111E+07
  0.3562E+07
  0.1988E+08
  0.3578E+07
  0.4843E+07
  0.8688E+07
  0.2103E+07
  0.2180E+07
  0.1300E+08
  0.1112E+08
  0.3687E+07
  0.3692E+07
  0.1729E+08
  0.4451E+07
  0.1649E+07
  0.4724E+07
  0.2634E+07
  0.5138E+08
  0.5140E+07
  0.1224E+08
  0.2324E+08
  0.7627E+07
  0.2558E+08
  0.2854E+07
  0.4441E+07
  0.1897E+08
  0.2056E+07
  0.1403E+08
  0.2293E+08
  0.1109E+08
  0.2558E+07
  0.1827E+07
  0.1296E+08
  0.9644E+07
  0.2803E+08
  0.4310E+07
  0.4026E+07
  0.1879E+07
  0.1006E+08
  0.2539E+07
  0.4926E+07
  0.7580E+04
  0.3829E+07
  0.1833E+07
  0.6319E+07
  0.3170E+07
  0.9244E+07
  0.1406E+08
  0.2307E+07
  0.4235E+07
  0.4298E+07
  0.3618E+07
  0.4054E+07
  0.5563E+07
  0.3245E+07
  0.2555E+07
  0.5257E+07
  0.2792E+07
  0.8209E+07
  0.2338E+07
  0.3274E+07
  0.7605E+07
  0.4540E+07
  0.7446E+07
  0.6170E+07
  0.2436E+08
  0.4358E+08
  0.1253E+08
  0.2327E+07
  0.1944E+07
  0.3895E+07
  0.2608E+07
  0.7414E+07
  0.2102E+08
  0.1729E+08
  0.5757E+07
  0.1716E+07
  0.9513E+07
  0.6552E+07
  0.9121E+07
  0.9035E+07
  0.1372E+08
  0.2815E+07
  0.3534E+07
  0.1456E+08
  0.6434E+07
  0.1858E+07
  0.9126E+07
  0.2282E+07
  0.1602E+08
  0.2731E+07
  0.1792E+08
  0.3355E+07
  0.2346E+08
  0.6683E+07
  0.3192E+08
  0.2236E+07
  0.1728E+08
  0.2291E+07
  0.7307E+07
  0.1077E+08
  0.1339E+08
  0.2253E+08
  0.2622E+07
  0.8661E+04
  0.2068E+05
  0.6089E+07
  0.1299E+07
  0.1092E+08
  0.4794E+07
  0.2902E+08
  0.7220E+07
  0.1634E+07
  0.1735E+07
  0.1388E+08
  0.2902E+07
  0.3110E+08
  0.2389E+07
  0.1930E+07
  0.1679E+08
  0.5528E+07
  0.2559E+07
  0.5587E+07
  0.5530E+07
  0.6619E+07
  0.1159E+08
  0.3187E+07
  0.6740E+07
  0.1026E+08
  0.4164E+07
  0.3903E+07
  0.2496E+07
  0.2786E+07
  0.5919E+07
  0.5416E+07
  0.7678E+07
  0.1657E+08
  0.4681E+07
  0.6267E+07
  0.2620E+07
  0.3241E+07
  0.2784E+07
  0.7387E+07
  0.1439E+08
  0.6553E+07
  0.1236E+08
  0.3174E+07
  0.8351E+07
  0.2261E+08
  0.3520E+07
  0.1353E+07
  0.8877E+07
  0.2793E+08
  0.4188E+07
  0.3922E+07
  0.2897E+07
  0.5911E+07
  0.9247E+07
  0.4388E+07
  0.4088E+07
  0.3629E+07
  0.1860E+07
  0.4718E+07
  0.3502E+07
  0.2151E+07
  0.2236E+07
  0.1191E+05
  0.3294E+05
  0.1998E+07
  0.1937E+07
  0.3284E+07
  0.5966E+07
  0.1852E+07
  0.1343E+08
  0.1987E+07
  0.2995E+07
  0.3131E+07
  0.1520E+08
  0.3306E+07
  0.6283E+07
  0.1595E+08
  0.3808E+07
  0.5505E+07
  0.4087E+07
  0.3565E+07
  0.7772E+07
  0.2102E+08
  0.5372E+07
  0.1512E+08
  0.1644E+08
  0.1499E+08
  0.1986E+08
  0.3836E+07
  0.7331E+07
  0.1416E+08
  0.4374E+07
  0.8208E+04
  0.1082E+08
  0.6800E+07
  0.1846E+08
  0.2759E+08
  0.1141E+08
  0.6426E+07
  0.4374E+07
  0.1189E+08
  0.1819E+08
  0.6836E+07
  0.2981E+07
  0.3739E+07
  0.5016E+07
  0.2946E+07
  0.1143E+08
  0.1078E+08
  0.2543E+07
  0.2030E+08
  0.3112E+08
  0.4538E+07
  0.2305E+07
  0.2308E+07
  0.4079E+07
  0.3320E+07
  0.2794E+07
  0.4622E+07
  0.7125E+07
  0.1180E+08
  0.8229E+07
  0.1353E+08
  0.5797E+07
  0.4442E+07
  0.7688E+07
  0.2783E+07
  0.1433E+08
  0.2596E+07
  0.4816E+07
  0.5095E+07
  0.2131E+07
  0.2005E+08
  0.6034E+07
  0.6909E+07
  0.9521E+07
  0.2452E+07
  0.4300E+07
  0.2999E+08
  0.9360E+07
  0.3608E+07
  0.2629E+07
  0.4998E+07
  0.2918E+07
  0.1874E+08
  0.2906E+07
  0.4882E+07
  0.2281E+07
  0.7566E+07
  0.2323E+07
  0.1578E+07
  0.5147E+07
  0.3828E+07
  0.7073E+07
  0.5509E+07
  0.2083E+07
  0.3002E+07
  0.3990E+07
  0.1608E+07
  0.2930E+08
  0.4272E+08
  0.2726E+08
  0.1846E+08
  0.1626E+08
  0.1017E+08
  0.4112E+07
  0.2633E+07
  0.2096E+07
  0.1680E+08
  0.6333E+07
  0.7689E+07
  0.2976E+07
  0.1935E+08
  0.3453E+07
  0.1462E+08
  0.3778E+07
  0.9395E+07
  0.2281E+08
  0.4091E+07
  0.1749E+08
  0.2172E+07
  0.1298E+08
  0.2076E+07
  0.6138E+07
  0.9711E+04
  0.3024E+05
  0.5463E+07
  0.2636E+07
  0.1560E+08
  0.8120E+07
  0.1019E+08
  0.5237E+07
  0.5772E+07
  0.2355E+07
  0.1456E+08
  0.2253E+07
  0.6352E+07
  0.6483E+07
  0.3967E+07
  0.3391E+08
  0.1898E+07
  0.1625E+07
  0.2858E+07
  0.5251E+07
  0.2543E+07
  0.1505E+08
  0.2875E+07
  0.6823E+07
  0.4642E+07
  0.2323E+07
  0.7529E+06
  0.7252E+07
  0.1765E+07
  0.3364E+07
  0.3188E+07
  0.1313E+05
  0.9562E+07
  0.5285E+07
  0.6883E+07
  0.2181E+08
  0.2037E+07
  0.3432E+07
  0.2157E+07
  0.2797E+08
  0.6506E+07
  0.2613E+07
  0.5740E+07
  0.1948E+08
  0.5593E+07
  0.1611E+08
  0.3606E+07
  0.4635E+07
  0.4205E+07
  0.8171E+07
  0.2130E+07
  0.1027E+08
  0.7872E+07
  0.1060E+08
  0.3515E+08
  0.1320E+08
  0.2066E+07
  0.4887E+07
  0.1498E+08
  0.1120E+07
  0.1249E+08
  0.3403E+07
  0.9519E+07
  0.1176E+08
  0.1917E+08
  0.2931E+05
  0.1235E+08
  0.2989E+07
  0.3733E+07
  0.2564E+07
  0.1491E+08
  0.4718E+07
  0.1137E+08
  0.4188E+07
  0.3274E+07
  0.1426E+08
  0.3058E+07
  0.2858E+07
  0.5801E+08
  0.4372E+07
  0.1650E+08
  0.6524E+07
  0.2704E+08
  0.6743E+07
  0.9307E+07
  0.2835E+07
  0.3527E+07
  0.3443E+07
  0.1742E+07
  0.5288E+07
  0.2330E+07
  0.6260E+07
  0.2544E+07
  0.4932E+07
  0.4585E+07
  0.1418E+08
  0.4182E+07
  0.1168E+08
  0.1239E+08
  0.5428E+07
  0.1013E+08
  0.6319E+07
  0.2154E+07
  0.1891E+08
  0.4669E+07
  0.3455E+07
  0.3939E+07
  0.3629E+07
  0.1119E+08
  0.2826E+08
  0.2228E+07
  0.2845E+07
  0.2779E+07
  0.2916E+07
  0.7119E+07
  0.3432E+07
  0.3588E+07
  0.1825E+08
  0.3729E+07
  0.3386E+07
  0.1399E+08
  0.4815E+07
  0.2658E+07
  0.1943E+07
  0.4154E+07
  0.9743E+04
  0.1868E+05
  0.5036E+07
  0.2042E+07
  0.2910E+07
  0.1328E+08
  0.5241E+07
  0.4883E+07
  0.6938E+07
  0.2861E+07
  0.1168E+08
  0.7372E+07
  0.3440E+07
  0.1182E+08
  0.3312E+07
  0.1238E+08
  0.4418E+07
  0.2531E+08
  0.9337E+07
  0.2831E+07
  0.1374E+08
  0.1742E+08
  0.8231E+07
  0.9364E+07
  0.9073E+07
  0.1987E+07
  0.8118E+07
  0.8867E+07
  0.2428E+07
  0.1313E+08
  0.2263E+07
  0.4208E+07
  0.1708E+08
  0.4757E+07
  0.2950E+08
  0.1554E+07
  0.2655E+08
  0.1557E+08
  0.1631E+07
  0.1734E+08
  0.1696E+07
  0.2058E+08
  0.2014E+08
  0.1134E+07
  0.5270E+07
  0.5015E+07
  0.2229E+07
  0.3022E+07
  0.2492E+07
  0.1871E+08
  0.3919E+07
  0.3700E+08
  0.6103E+07
  0.2742E+07
  0.8814E+07
  0.2565E+07
  0.1708E+08
  0.2352E+08
  0.7029E+07
  0.1348E+07
  0.3838E+07
  0.6134E+07
  0.3260E+05
  0.1198E+08
  0.1880E+08
  0.1605E+08
  0.1246E+07
  0.4925E+07
  0.4765E+07
  0.2924E+08
  0.2156E+07
  0.8960E+07
  0.2298E+07
  0.9773E+07
  0.1535E+08
  0.6029E+07
  0.2324E+08
  0.1803E+07
  0.1070E+08
  0.6118E+07
  0.1877E+07
  0.4141E+08
  0.1503E+08
  0.2520E+07
  0.2022E+07
  0.3454E+07
  0.1244E+08
  0.1859E+07
  0.1474E+07
  0.2787E+08
  0.8016E+07
  0.6435E+07
  0.2179E+07
  0.5104E+07
  0.9210E+07
  0.4688E+07
  0.8851E+07
  0.2455E+07
  0.5060E+07
  0.2629E+08
  0.3858E+07
  0.1551E+08
  0.3122E+07
  0.2742E+07
  0.4882E+07
  0.2224E+07
  0.2086E+08
  0.3967E+07
  0.7696E+07
  0.5267E+07
  0.2151E+07
  0.6153E+07
  0.2440E+07
  0.6716E+08
  0.1767E+07
  0.1006E+08
  0.1759E+07
  0.6797E+07
  0.2702E+07
  0.6394E+07
  0.5359E+07
  0.2150E+07
  0.1422E+08
  0.1762E+08
  0.7539E+04
  0.1930E+08
  0.4409E+07
  0.6109E+07
  0.6533E+07
  0.2655E+07
  0.8978E+07
  0.8943E+07
  0.8597E+07
  0.2668E+07
  0.6237E+07
  0.5362E+07
  0.3951E+08
  0.3373E+07
  0.2578E+07
  0.5901E+07
  0.1761E+08
  0.3713E+08
  0.2547E+07
  0.1933E+08
  0.2030E+07
  0.1495E+08
  0.1006E+08
  0.2365E+07
  0.2018E+08
  0.3462E+07
  0.3049E+07
  0.2086E+08
  0.1911E+07
  0.9343E+07
  0.2760E+07
  0.2317E+08
  0.1810E+05
  0.9390E+07
  0.1606E+07
  0.1171E+08
  0.3453E+08
  0.4845E+07
  0.2242E+07
  0.3569E+07
  0.1662E+08
  0.1284E+08
  0.1419E+08
  0.7314E+07
  0.3290E+07
  0.1076E+08
  0.3768E+07
  0.1650E+07
  0.2790E+07
  0.1519E+07
  0.9892E+07
  0.1918E+07
  0.2266E+07
  0.1977E+07
  0.3931E+07
  0.2412E+07
  0.1393E+08
  0.6139E+07
  0.2410E+07
  0.4348E+07
  0.4179E+07
  0.1239E+05
  0.4426E+05
  0.4817E+07
  0.4659E+07
  0.5853E+07
  0.3704E+07
  0.2700E+08
  0.1496E+08
  0.4000E+07
  0.2235E+07
  0.2466E+08
  0.1429E+07
  0.2407E+08
  0.1851E+07
  0.1956E+08
  0.3961E+07
  0.2244E+08
  0.3362E+07
  0.1205E+08
  0.1750E+08
  0.2696E+07
  0.1583E+08
  0.1912E+07
  0.1649E+08
  0.2463E+07
  0.1757E+08
  0.2967E+07
  0.3504E+07
  0.6454E+07
  0.1038E+08
  0.4417E+07
  0.1398E+08
  0.1798E+05
  0.8543E+07
  0.2566E+07
  0.4365E+07
  0.1979E+08
  0.3126E+07
  0.4416E+07
  0.8565E+07
  0.3464E+07
  0.1719E+08
  0.2103E+07
  0.1917E+07
  0.5212E+07
  0.1171E+07
  0.9448E+07
  0.6599E+07
  0.3200E+07
  0.3375E+07
  0.6099E+07
  0.2283E+07
  0.4437E+07
  0.2679E+07
  0.5617E+07
  0.2184E+07
  0.2740E+07
  0.1437E+08
  0.2752E+07
  0.2155E+08
  0.1885E+07
  0.2478E+07
  0.1627E+07
  0.1220E+08
  0.8589E+07
  0.7177E+07
  0.3887E+07
  0.5305E+07
  0.5986E+07
  0.4429E+07
  0.1239E+07
  0.3739E+07
  0.6062E+07
  0.1358E+08
  0.2813E+07
  0.1477E+08
  0.4397E+07
  0.3819E+07
  0.2906E+07
  0.2742E+07
  0.2495E+08
  0.8181E+07
  0.5145E+07
  0.1650E+08
  0.4463E+07
  0.8773E+07
  0.1833E+07
  0.2727E+08
  0.1454E+07
  0.8452E+06
  0.4924E+07
  0.1798E+07
  0.5720E+07
  0.1219E+08
  0.1747E+07
  0.2010E+05
  0.1270E+08
  0.4132E+07
  0.4185E+07
  0.2108E+08
  0.4067E+07
  0.1311E+08
  0.4733E+07
  0.1455E+07
  0.6320E+07
  0.4930E+07
  0.3117E+08
  0.2101E+07
  0.1818E+08
  0.3235E+07
  0.2258E+08
  0.2992E+07
  0.4739E+07
  0.3647E+07
  0.2554E+07
  0.6890E+07
  0.2164E+08
  0.2223E+07
  0.1325E+08
  0.9694E+07
  0.2392E+07
  0.9502E+07
  0.2371E+07
  0.1806E+08
  0.2733E+08
  0.1732E+07
  0.1148E+05
  0.3038E+08
  0.6953E+07
  0.1317E+08
  0.2391E+08
  0.1433E+08
  0.4928E+07
  0.1509E+08
  0.4001E+07
  0.1588E+08
  0.2677E+07
  0.2573E+07
  0.1035E+08
  0.6043E+07
  0.5644E+07
  0.2731E+07
  0.4218E+07
  0.2896E+07
  0.1425E+08
  0.2503E+07
  0.1532E+08
  0.8880E+06
  0.2282E+07
  0.1796E+08
  0.4839E+07
  0.3136E+07
  0.1741E+07
  0.1720E+07
  0.1079E+08
  0.5130E+07
  0.2636E+07
  0.6651E+07
  0.2431E+05
  0.5091E+07
  0.1103E+07
  0.1286E+07
  0.3988E+07
  0.2096E+07
  0.1358E+08
  0.1040E+07
  0.4185E+07
  0.3875E+08
  0.5420E+07
  0.3222E+07
  0.2672E+07
  0.2031E+08
  0.4589E+07
  0.3533E+07
  0.3878E+07
  0.1834E+08
  0.1273E+07
  0.3001E+07
  0.3852E+08
  0.2867E+07
  0.4367E+07
  0.3104E+07
  0.1939E+08
  0.1143E+08
  0.3141E+07
  0.1078E+08
  0.2546E+07
  0.2354E+07
  0.4706E+07
  0.1189E+05
  0.3182E+05
  0.5405E+07
  0.2011E+07
  0.3773E+07
  0.3421E+07
  0.5377E+07
  0.3073E+08
  0.5720E+07
  0.3840E+07
  0.4390E+07
  0.6194E+07
  0.1818E+08
  0.3074E+07
  0.1154E+08
  0.4237E+07
  0.3536E+08
  0.1566E+07
  0.1040E+08
  0.3389E+07
  0.1172E+08
  0.1589E+08
  0.3305E+07
  0.8203E+07
  0.1338E+08
  0.3373E+07
  0.3155E+07
  0.4122E+07
  0.2484E+07
  0.4984E+07
  0.4748E+07
  0.9183E+07
  0.1362E+08
  0.8985E+06
  0.2715E+08
  0.1155E+08
  0.4729E+07
  0.5261E+07
  0.2679E+07
  0.4585E+07
  0.1876E+08
  0.7915E+07
  0.1281E+08
  0.4807E+07
  0.2252E+07
  0.9630E+07
  0.4587E+07
  0.2210E+08
  0.8892E+07
  0.3749E+07
  0.1127E+08
  0.5885E+07
  0.2584E+07
  0.1789E+08
  0.2497E+07
  0.1977E+08
  0.1318E+08
  0.2348E+07
  0.9355E+07
  0.1128E+08
  0.1760E+07
  0.4452E+07
  0.1171E+05
  0.3224E+05
  0.1868E+07
  0.1986E+08
  0.1043E+08
  0.2528E+08
  0.4114E+07
  0.2138E+08
  0.8387E+07
  0.2439E+07
  0.3656E+07
  0.2737E+07
  0.1258E+08
  0.5792E+07
  0.2563E+07
  0.9153E+07
  0.4927E+07
  0.3205E+07
  0.2216E+08
  0.3702E+07
  0.2380E+08
  0.9443E+07
  0.3551E+07
  0.1026E+08
  0.1237E+08
  0.5905E+07
  0.2515E+07
  0.2153E+07
  0.3099E+08
  0.5525E+07
  0.7068E+07
  0.1488E+08
  0.1790E+08
  0.1044E+08
  0.3438E+07
  0.5227E+07
  0.4543E+07
  0.5669E+07
  0.2482E+07
  0.4836E+07
  0.1257E+08
  0.7176E+07
  0.2788E+07
  0.2824E+07
  0.1118E+08
  0.3222E+07
  0.1227E+08
  0.1550E+07
  0.8288E+07
  0.2069E+07
  0.2206E+07
  0.5877E+07
  0.2320E+07
  0.1415E+07
  0.2472E+07
  0.5324E+07
  0.2485E+08
  0.9384E+07
  0.4596E+07
  0.2447E+07
  0.1664E+07
  0.4111E+07
  0.1208E+05
  0.3275E+05
  0.4111E+07
  0.2986E+07
  0.8489E+07
  0.2943E+07
  0.6058E+07
  0.1454E+08
  0.3063E+07
  0.1234E+08
  0.2052E+08
  0.1889E+08
  0.5057E+07
  0.5939E+07
  0.4424E+07
  0.2004E+07
  0.3442E+08
  0.2320E+07
  0.2392E+07
  0.6439E+07
  0.1621E+08
  0.2121E+07
  0.1576E+08
  0.1583E+07
  0.1417E+08
  0.2354E+07
  0.2842E+07
  0.1428E+08
  0.2089E+07
  0.1069E+08
  0.6304E+07
  0.2211E+07
  0.7310E+04
  0.1644E+08
  0.3350E+07
  0.1433E+08
  0.2927E+07
  0.6005E+07
  0.1105E+07
  0.3465E+07
  0.9698E+07
  0.5913E+07
  0.5196E+07
  0.1259E+07
  0.2169E+08
  0.1586E+08
  0.1313E+08
  0.9312E+07
  0.2306E+07
  0.9260E+07
  0.1538E+07
  0.8247E+06
  0.9217E+07
  0.2557E+07
  0.8755E+07
  0.1774E+07
  0.6126E+07
  0.3644E+07
  0.2103E+07
  0.3029E+07