# vtk DataFile Version 3.0
rivers
ASCII
DATASET UNSTRUCTURED_GRID
POINTS       1873 float
           0.000           0.000           0.000
        1600.000           0.000           0.000
        3200.000           0.000           0.000
        4800.000           0.000           0.000
        6400.000           0.000           0.000
        8000.000           0.000           0.000
        9600.000           0.000           0.000
       11200.000           0.000           0.000
       12800.000           0.000           0.000
       14400.001           0.000           0.000
       16000.000           0.000           0.000
       17600.000           0.000           0.000
       19200.000           0.000           0.000
       20799.999           0.000           0.000
       22400.000           0.000           0.000
       24000.001           0.000           0.000
       25599.999           0.000           0.000
       27200.000           0.000           0.000
       28800.001           0.000           0.000
       30400.000           0.000           0.000
       32000.000           0.000           0.000
       33599.999           0.000           0.000
       35200.000           0.000           0.000
       36800.001           0.000           0.000
       38399.999           0.000           0.000
       40000.000           0.000           0.000
       41599.998           0.000           0.000
       43200.002           0.000           0.000
       44800.000           0.000           0.000
       46399.999           0.000           0.000
       48000.002           0.000           0.000
       49600.000           0.000           0.000
       51199.999           0.000           0.000
       52800.002           0.000           0.000
       54400.001           0.000           0.000
       55999.999           0.000           0.000
       57600.002           0.000           0.000
       59200.001           0.000           0.000
       60799.999           0.000           0.000
       62399.998           0.000           0.000
       64000.001           0.000           0.000
       65599.999           0.000           0.000
       67199.998           0.000           0.000
       68800.001           0.000           0.000
       70400.000           0.000           0.000
       71999.998           0.000           0.000
       73600.001           0.000           0.000
       75200.000           0.000           0.000
       76799.998           0.000           0.000
       78400.002           0.000           0.000
       80000.000           0.000           0.000
           0.000        1600.000           0.000
        1820.535        1836.129          72.812
        4436.497        1560.645          79.744
        8231.839        1585.959          76.897
       11192.297        1979.624          86.998
       14535.388        1860.001          72.555
       17224.315        1919.917          80.646
       20899.237        1802.853          84.425
       23731.335        1792.943          79.109
       27507.238        1603.221          79.865
       30065.602        1613.570          90.001
       33371.579        1994.991          80.216
       37099.539        1414.823          81.469
       38196.713        1837.356          76.598
       41840.942        1855.796          80.742
       43418.644        1867.336          69.727
       46734.950        1319.882          83.584
       49975.028        1831.460          90.787
       52954.322        1538.422          81.555
       55816.240        1531.934          79.458
       59004.449        1641.677          81.094
       60471.826        1510.939          81.553
       63784.513        1656.536          90.436
       67301.210        1771.228          88.602
       70381.695        1920.216          90.747
       72217.113        1448.806          74.480
       75069.462        1621.662          78.190
       78696.327        1722.356          76.817
       80000.000        1600.000           0.000
           0.000        3200.000           0.000
        3274.399        3217.174          95.973
        5160.666        3300.186         100.469
        6043.012        3262.445          88.990
        9502.865        3552.908         100.531
       11056.006        2840.019         100.531
       14606.628        2840.755          91.031
       17562.634        3511.308          95.137
       18833.142        3539.080          80.296
       22026.411        2868.051          89.234
       25600.029        2863.835          88.708
       27192.156        3106.980         100.234
       30375.600        2888.881         100.185
       33224.678        2857.386          93.035
       36841.038        3085.085          93.328
       40238.304        3524.647          89.947
       43557.179        3128.631          89.423
       46228.872        2830.415          89.103
       48146.017        3166.706          90.972
       51153.215        2952.745          88.965
       53124.514        2981.904         100.022
       56001.007        3429.944         100.400
       59307.581        3225.477         100.191
       62124.444        3154.870          90.580
       64132.610        2904.590         100.303
       67439.924        3451.420         100.204
       68998.763        3472.006         100.307
       72219.436        2879.026          94.278
       75532.535        3132.944         100.629
       78652.387        3551.841          78.747
       80000.000        3200.000           0.000
           0.000        4800.000           0.000
        1400.060        4439.660          84.614
        4786.648        4655.285         100.516
        8308.484        5116.135         100.427
       11454.778        4403.585         100.800
       14098.429        4923.032         100.182
       17912.789        5043.475          96.542
       20446.875        4859.061          96.110
       24108.597        4895.159         100.750
       27234.832        4431.193         100.511
       28696.423        4449.033         100.176
       32196.694        4589.490         100.596
       33867.228        4797.771         100.432
       34933.129        4760.558         100.432
       38067.139        5053.208          99.474
       41605.852        4581.133         100.093
       44854.687        5021.321         100.131
       48175.269        4416.823         100.294
       51163.202        5122.950         100.234
       54186.876        4703.411         100.247
       56317.818        4828.699         100.247
       59169.326        5108.954         100.191
       62536.999        4516.819         100.303
       65848.099        4445.450         100.139
       68694.276        4766.024         100.517
       71946.222        4752.098         100.089
       75433.121        5067.460         100.433
       78033.243        4664.320          84.130
       80000.000        4800.000           0.000
           0.000        6400.000           0.000
        2841.623        6773.290          87.901
        6245.685        6376.243         100.566
        7744.385        6030.238         100.366
       11368.686        6592.994         100.310
       14270.010        6704.916         100.600
       17330.427        6370.488         100.586
       19571.144        6573.041         100.492
       22641.152        6627.002         100.775
       23763.572        6012.529         100.689
       27463.089        6427.221         100.276
       30273.002        6504.167         100.370
       33884.178        6077.220         100.453
       35390.886        6255.305         100.432
       38075.664        6205.118         100.397
       40048.604        6389.405         100.376
       43255.311        6307.072         100.445
       46126.564        6231.346         100.116
       48285.057        6596.744         100.116
       51294.080        6157.575         100.130
       54250.249        6543.358         100.340
       57921.865        6224.397         100.709
       59558.312        6004.572         100.193
       62425.662        6132.109         100.447
       65724.696        6341.122         100.381
       68956.079        6674.843         100.568
       72380.520        6490.972         100.502
       75318.037        6459.550         100.521
       78160.955        6114.578          81.030
       80000.000        6400.000           0.000
           0.000        8000.000           0.000
        3576.129        8217.635          86.490
        5061.593        7652.754          96.485
        8105.944        7856.844         100.366
       11121.498        7830.817         100.407
       14531.786        8256.985         100.629
       16036.950        7761.051         100.340
       19087.239        8020.414         100.430
       22626.171        7850.784         100.566
       25653.785        8135.625         100.486
       28733.316        8014.857         100.171
       30647.917        7622.140         100.171
       31669.813        8123.016         100.171
       35544.551        8083.612         100.765
       38771.621        7743.567         100.599
       41941.639        8315.419         100.344
       44649.095        8053.831         100.113
       48005.993        8300.872         100.152
       51584.272        8303.210         100.226
       52951.115        7723.006         100.244
       55834.828        8389.314         100.477
       58839.904        7674.993         100.254
       60484.772        8202.290         100.323
       63784.723        8145.830         100.671
       67326.420        8175.747         100.317
       68571.734        8073.207         100.342
       72193.925        8373.058         100.802
       73714.578        7878.720         100.442
       77044.523        8185.581          93.041
       78448.742        7636.455          71.452
       80000.000        8000.000           0.000
           0.000        9600.000           0.000
[...]
POINT_DATA       1873
SCALARS discharge float 1
LOOKUP_TABLE default
  0.9948E+04
  0.1744E+07
  0.1285E+08
  0.1677E+07
  0.9061E+07
  0.1032E+07
  0.1191E+08
  0.1240E+07
  0.2480E+07
  0.1217E+07
  0.1448E+08
  0.1876E+07
  0.2240E+08
  0.1174E+07
  0.1517E+08
  0.1772E+07
  0.7775E+07
  0.1573E+07
  0.5167E+07
  0.1027E+07
  0.1504E+08
  0.1242E+07
  0.5671E+07
  0.8686E+06
  0.1513E+07
  0.2228E+08
  0.1700E+07
  0.5174E+07
  0.1903E+08
  0.1148E+07
  0.1086E+08
  0.1441E+07
  0.6954E+07
  0.1410E+07
  0.4432E+07
  0.8937E+06
  0.9213E+07
  0.3634E+07
  0.1428E+07
  0.6457E+07
  0.9728E+06
  0.7551E+07
  0.1007E+07
  0.4703E+07
  0.8409E+07
  0.8037E+06
  0.1683E+07
  0.9086E+06
  0.7197E+07
  0.9690E+06
  0.6849E+04
  0.3196E+05
  0.7178E+07
  0.2576E+07
  0.4070E+07
  0.3209E+07
  0.8085E+07
  0.2926E+07
  0.3639E+07
  0.3611E+07
  0.2762E+07
  0.1711E+07
  0.7853E+07
  0.2817E+07
  0.1266E+08
  0.3031E+07
  0.1009E+08
  0.1224E+07
  0.1768E+07
  0.2201E+07
  0.3724E+07
  0.2591E+07
  0.1942E+07
  0.1417E+07
  0.2174E+07
  0.1456E+07
  0.6404E+07
  0.4706E+07
  0.3120E+07
  0.7296E+04
  0.2967E+05
  0.2248E+07
  0.8395E+07
  0.4151E+07
  0.5089E+07
  0.1169E+08
  0.4366E+07
  0.3509E+07
  0.1663E+08
  0.3263E+07
  0.2997E+07
  0.2354E+07
  0.5468E+07
  0.4323E+07
  0.8886E+07
  0.4017E+07
  0.7943E+07
  0.3748E+07
  0.2160E+07
  0.3459E+07
  0.7247E+07
  0.2350E+07
  0.2831E+08
  0.2583E+07
  0.2149E+08
  0.1034E+07
  0.9049E+07
  0.3428E+07
  0.4222E+07
  0.2973E+07
  0.3135E+07
  0.1807E+05
  0.4845E+07
  0.5020E+07
  0.1696E+07
  0.2465E+07
  0.1383E+08
  0.3250E+07
  0.5669E+07
  0.6171E+07
  0.2646E+07
  0.1954E+08
  0.3285E+07
  0.4826E+07
  0.8535E+07
  0.3643E+07
  0.1337E+07
  0.4720E+07
  0.4127E+07
  0.2427E+07
  0.1710E+08
  0.8646E+07
  0.2030E+08
  0.1410E+08
  0.1268E+08
  0.2557E+07
  0.1152E+08
  0.1545E+08
  0.1793E+07
  0.7714E+07
  0.1241E+08
  0.3903E+07
  0.2993E+07
  0.2960E+08
  0.9091E+07
  0.1959E+07
  0.1799E+07
  0.4316E+07
  0.2700E+07
  0.1771E+08
  0.3025E+07
  0.2593E+07
  0.3808E+07
  0.2144E+08
  0.2807E+07
  0.1384E+08
  0.2978E+07
  0.9567E+07
  0.2946E+08
  0.8259E+07
  0.2536E+07
  0.1867E+07
  0.1403E+08
  0.8236E+07
  0.4612E+07
  0.4850E+07
  0.1731E+07
  0.2490E+07
  0.2918E+07
  0.6386E+07
  0.1114E+08
  0.7029E+07
  0.5322E+07
  0.1346E+08
  0.3507E+07
  0.1653E+07
  0.3459E+07
  0.1404E+08
  0.1001E+08
  0.1885E+07
  0.1326E+08
  0.3911E+08
  0.1474E+08
  0.3330E+07
  0.2738E+07
  0.2290E+07
  0.1523E+08
  0.3626E+07
  0.1117E+07
  0.3043E+07
  0.4392E+07
  0.9744E+07
  0.5172E+07
  0.2862E+07
  0.4595E+07
  0.9666E+07
  0.1553E+07
  0.7761E+07
  0.4405E+07
  0.6369E+07
  0.1709E+07
  0.3073E+05
  0.3805E+07
  0.5250E+07
  0.4441E+07
  0.1038E+08
  0.1182E+08
  0.1842E+07
  0.2739E+07
  0.8337E+07
  0.1632E+08
  0.4003E+07
  0.5682E+07
  0.3680E+07
  0.2571E+07
  0.1351E+08
  0.2635E+07
  0.1073E+08
  0.3464E+07
  0.4678E+07
  0.6994E+07
  0.2393E+08
  0.6983E+07
  0.3180E+07
  0.4191E+07
  0.1693E+07
  0.4135E+07
  0.2638E+08
  0.1578E+07
  0.2589E+07
  0.1694E+07
  0.1171E+05
  0.1235E+08
  0.3281E+07
  0.2377E+07
  0.4951E+08
  0.2240E+07
  0.2132E+08
  0.3218E+07
  0.8593E+07
  0.2427E+07
  0.4076E+07
  0.3048E+07
  0.2751E+07
  0.5124E+07
  0.3044E+08
  0.3682E+07
  0.1753E+07
  0.1629E+08
  0.2537E+07
  0.2244E+07
  0.1940E+07
  0.6506E+07
  0.1163E+08
  0.3781E+08
  0.6762E+07
  0.1653E+08
  0.2486E+07
  0.3138E+07
  0.2107E+08
  0.3054E+07
  0.7765E+07
  0.4360E+07
  0.9444E+04
  0.1104E+08
  0.1089E+07
  0.3189E+07
  0.9481E+07
  0.3491E+08
  0.2189E+08
  0.1032E+08
  0.2606E+07
  0.1223E+07
  0.1318E+08
  0.2505E+08
  0.2818E+07
  0.1526E+08
  0.4442E+07
  0.1445E+08
  0.4654E+07
  0.2073E+07
  0.3654E+07
  0.1865E+08
  0.1712E+07
  0.2465E+07
  0.2419E+08
  0.3458E+07
  0.4302E+07
  0.9550E+07
  0.4713E+07
  0.1684E+07
  0.2443E+07
  0.3245E+07
  0.1208E+08
  0.5908E+07
  0.1898E+08
  0.1871E+07
  0.9780E+07
  0.1719E+05
  0.6489E+07
  0.3553E+07
  0.1745E+08
  0.3021E+08
  0.2023E+07
  0.3096E+07
  0.3887E+07
  0.1167E+08
  0.2540E+07
  0.1566E+07
  0.7490E+07
  0.4167E+08
  0.2264E+07
  0.4612E+07
  0.1298E+08
  0.1786E+07
  0.4699E+07
  0.7580E+07
  0.1384E+08
  0.2252E+08
  0.1257E+08
  0.2484E+07
  0.2083E+07
  0.3522E+07
  0.7743E+07
  0.2274E+07
  0.1916E+07
  0.1431E+07
  0.6366E+07
  0.1259E+08
  0.4258E+07
  0.2549E+07
  0.7142E+07
  0.6174E+07
  0.1897E+07
  0.2532E+08
  0.2311E+07
  0.8078E+07
  0.4600E+07
  0.8515E+07
  0.2063E+07
  0.1229E+08
  0.7674E+07
  0.3702E+07
  0.1527E+07
  0.6295E+07
  0.2513E+07
  0.2554E+07
  0.1448E+08
  0.3138E+07
  0.2537E+07
  0.4441E+07
  0.7881E+07
  0.5562E+07
  0.2414E+08
  0.7439E+07
  0.4091E+07
  0.1033E+08
  0.2536E+07
  0.1232E+05
  0.1785E+05
  0.1905E+07
  0.5059E+07
  0.1829E+07
  0.1610E+08
  0.6148E+07
  0.3898E+08
  0.3018E+07
  0.2266E+08
  0.1104E+08
  0.2386E+07
  0.3175E+07
  0.6851E+07
  0.2051E+07
  0.2345E+07
  0.1710E+08
  0.1752E+07
  0.2568E+07
  0.9108E+07
  0.4133E+07
  0.4107E+07
  0.4032E+07
  0.2562E+08
  0.2828E+08
  0.2754E+07
  0.2637E+07
  0.1039E+08
  0.2599E+07
  0.2914E+07
  0.6179E+07
  0.2895E+05
  0.1118E+07
  0.1771E+08
  0.8467E+07
  0.1615E+08
  0.2615E+07
  0.8487E+07
  0.1429E+08
  0.3018E+07
  0.9809E+07
  0.5526E+07
  0.2020E+07
  0.5284E+07
  0.1220E+08
  0.2156E+08
  0.2613E+07
  0.1073E+08
  0.2184E+07
  0.1694E+08
  0.4623E+07
  0.2890E+07
  0.2123E+07
  0.9059E+07
  0.1158E+08
  0.2472E+07
  0.4903E+07
  0.2123E+08
  0.9983E+07
  0.2112E+07
  0.5374E+07
  0.1476E+08
  0.4821E+07
  0.3877E+07
  0.2660E+07
  0.1740E+08
  0.3960E+07
  0.5071E+07
  0.7851E+07
  0.2511E+07
  0.5087E+08
  0.8741E+07
  0.6938E+07
  0.1033E+08
  0.4669E+07
  0.2305E+07
  0.1706E+07
  0.8507E+06
  0.8488E+07
  0.4273E+07
  0.1742E+08
  0.3293E+07
  0.9404E+07
  0.2710E+07
  0.2386E+07
  0.1681E+07
  0.2683E+08
  0.3421E+07
  0.1647E+07
  0.2217E+08
  0.2028E+07
  0.3270E+07
  0.2748E+05
  0.2611E+07
  0.3452E+07
  0.4940E+07
  0.3794E+07
  0.4708E+07
  0.2176E+08
  0.1311E+07
  0.3183E+07
  0.1763E+08
  0.1347E+07
  0.1849E+07
  0.4903E+07
  0.1436E+08
  0.2089E+07
  0.1440E+08
  0.1050E+08
  0.9892E+07
  0.1352E+07
  0.2097E+07
  0.2230E+07
  0.4383E+07
  0.3427E+07
  0.1583E+08
  0.2157E+07
  0.1395E+08
  0.8864E+07
  0.1585E+07
  0.5184E+07
  0.3253E+07
  0.2846E+07
  0.6952E+07
  0.3630E+07
  0.9362E+07
  0.3556E+07
  0.3527E+08
  0.2233E+07
  0.2377E+07
  0.8943E+07
  0.5103E+07
  0.7938E+07
  0.5294E+07
  0.1511E+08
  0.2700E+07
  0.4611E+07
  0.2035E+08
  0.3437E+07
  0.1094E+08
  0.1494E+07
  0.2959E+07
  0.1015E+08
  0.1866E+07
  0.1083E+08
  0.1531E+08
  0.5948E+07
  0.2329E+07
  0.4904E+07
  0.2269E+07
  0.2880E+07
  0.2955E+07
  0.6501E+07
  0.2831E+07
  0.7013E+04
  0.6201E+07
  0.3277E+07
  0.3359E+07
  0.9467E+07
  0.7571E+07
  0.5077E+07
  0.1217E+08
  0.2214E+07
  0.2039E+07
  0.9268E+07
  0.1832E+07
  0.4228E+08
  0.8854E+07
  0.1513E+07
  0.3461E+07
  0.3905E+08
  0.4088E+07
  0.2740E+07
  0.2097E+08
  0.1534E+07
  0.3891E+07
  0.2048E+07
  0.2450E+08
  0.2597E+07
  0.1671E+08
  0.5609E+07
  0.6143E+07
  0.2658E+07
  0.2022E+08
  0.9348E+07
  0.6784E+07
  0.1092E+05
  0.1056E+08
  0.7360E+07
  0.7526E+07
  0.2380E+07
  0.1050E+08
  0.1516E+07
  0.2016E+08
  0.4182E+07
  0.5742E+07
  0.1942E+07
  0.3290E+07
  0.5295E+07
  0.7726E+07
  0.7840E+07
  0.7264E+07
  0.2892E+07
  0.2228E+07
  0.2556E+07
  0.4270E+07
  0.1906E+08
  0.3872E+07
  0.4219E+07
  0.7056E+07
  0.2162E+07
  0.1803E+07
  0.1297E+08
  0.1059E+08
  0.4302E+07
  0.3309E+07
  0.1422E+08
  0.4498E+07
  0.1743E+07
  0.4360E+07
  0.2537E+07
  0.4920E+08
  0.5110E+07
  0.1199E+08
  0.2026E+08
  0.7253E+07
  0.2469E+08
  0.2347E+07
  0.3556E+07
  0.1968E+08
  0.1847E+07
  0.1273E+08
  0.2031E+08
  0.1039E+08
  0.1989E+07
  0.1713E+07
  0.1193E+08
  0.7713E+07
  0.2357E+08
  0.5204E+07
  0.2870E+07
  0.1638E+07
  0.9035E+07
  0.3215E+07
  0.3700E+07
  0.7385E+04
  0.4041E+07
  0.2095E+07
  0.5594E+07
  0.3965E+07
  0.9712E+07
  0.1350E+08
  0.1807E+07
  0.4530E+07
  0.2690E+07
  0.2964E+07
  0.4069E+07
  0.5204E+07
  0.3787E+07
  0.1886E+07
  0.4416E+07
  0.2551E+07
  0.7207E+07
  0.2391E+07
  0.2659E+07
  0.6400E+07
  0.4262E+07
  0.7675E+07
  0.4057E+07
  0.2498E+08
  0.4351E+08
  0.1095E+08
  0.2897E+07
  0.1825E+07
  0.4620E+07
  0.2268E+07
  0.6740E+07
  0.1708E+08
  0.1367E+08
  0.3901E+07
  0.1872E+07
  0.9245E+07
  0.5769E+07
  0.8485E+07
  0.8415E+07
  0.1244E+08
  0.2429E+07
  0.3592E+07
  0.1407E+08
  0.6127E+07
  0.1735E+07
  0.8519E+07
  0.2135E+07
  0.1449E+08
  0.2056E+07
  0.1731E+08
  0.3274E+07
  0.2189E+08
  0.6199E+07
  0.2922E+08
  0.2153E+07
  0.1791E+08
  0.2059E+07
  0.6245E+07
  0.1091E+08
  0.1124E+08
  0.2457E+08
  0.2375E+07
  0.8267E+04
  0.1951E+05
  0.4723E+07
  0.3405E+07
  0.1083E+08
  0.4852E+07
  0.2676E+08
  0.6979E+07
  0.1502E+07
  0.1456E+07
  0.1268E+08
  0.2954E+07
  0.3012E+08
  0.2486E+07
  0.1801E+07
  0.1474E+08
  0.5277E+07
  0.2352E+07
  0.5385E+07
  0.5808E+07
  0.5886E+07
  0.1072E+08
  0.2914E+07
  0.4958E+07
  0.1092E+08
  0.3996E+07
  0.2969E+07
  0.2270E+07
  0.1651E+07
  0.6533E+07
  0.2927E+07
  0.5118E+07
  0.1477E+08
  0.3948E+07
  0.8112E+07
  0.2362E+07
  0.2819E+07
  0.2353E+07
  0.6218E+07
  0.1275E+08
  0.5855E+07
  0.1018E+08
  0.2051E+07
  0.8793E+07
  0.2286E+08
  0.2218E+07
  0.1265E+07
  0.9259E+07
  0.2750E+08
  0.3539E+07
  0.3492E+07
  0.2380E+07
  0.5552E+07
  0.8924E+07
  0.3720E+07
  0.4049E+07
  0.3662E+07
  0.1835E+07
  0.4839E+07
  0.3188E+07
  0.2896E+07
  0.2165E+07
  0.1128E+05
  0.3004E+05
  0.2503E+07
  0.2478E+07
  0.3075E+07
  0.4826E+07
  0.2179E+07
  0.1266E+08
  0.1854E+07
  0.3445E+07
  0.1567E+07
  0.1333E+08
  0.4085E+07
  0.6625E+07
  0.1370E+08
  0.4168E+07
  0.5031E+07
  0.3405E+07
  0.3130E+07
  0.7113E+07
  0.2095E+08
  0.4565E+07
  0.1437E+08
  0.1545E+08
  0.1404E+08
  0.2035E+08
  0.4796E+07
  0.6909E+07
  0.1425E+08
  0.3097E+07
  0.7946E+04
  0.8143E+07
  0.4579E+07
  0.1969E+08
  0.2616E+08
  0.9934E+07
  0.6854E+07
  0.4103E+07
  0.1120E+08
  0.1628E+08
  0.7184E+07
  0.2436E+07
  0.3859E+07
  0.3467E+07
  0.2767E+07
  0.1052E+08
  0.9714E+07
  0.2592E+07
  0.1984E+08
  0.3044E+08
  0.4115E+07
  0.1997E+07
  0.1880E+07
  0.3782E+07
  0.3071E+07
  0.2653E+07
  0.4336E+07
  0.9760E+07
  0.1546E+08
  0.5819E+07
  0.1216E+08
  0.4500E+07
  0.5516E+07
  0.8321E+07
  0.2506E+07
  0.1452E+08
  0.2056E+07
  0.4921E+07
  0.2997E+07
  0.1981E+07
  0.1934E+08
  0.5446E+07
  0.6377E+07
  0.9824E+07
  0.2249E+07
  0.4000E+07
  0.2971E+08
  0.9238E+07
  0.3492E+07
  0.3229E+07
  0.4225E+07
  0.3594E+07
  0.1780E+08
  0.3028E+07
  0.5079E+07
  0.1949E+07
  0.7138E+07
  0.2126E+07
  0.1392E+07
  0.7880E+07
  0.2695E+07
  0.5171E+07
  0.4904E+07
  0.2146E+07
  0.3885E+07
  0.2896E+07
  0.1495E+07
  0.2858E+08
  0.3960E+08
  0.2569E+08
  0.1731E+08
  0.1490E+08
  0.9149E+07
  0.3849E+07
  0.2387E+07
  0.1973E+07
  0.1437E+08
  0.6825E+07
  0.7456E+07
  0.2099E+07
  0.1685E+08
  0.2774E+07
  0.1352E+08
  0.2738E+07
  0.8894E+07
  0.2202E+08
  0.3750E+07
  0.1662E+08
  0.2057E+07
  0.1365E+08
  0.3597E+07
  0.4287E+07
  0.9390E+04
  0.2819E+05
  0.4860E+07
  0.2146E+07
  0.1539E+08
  0.7552E+07
  0.9460E+07
  0.5010E+07
  0.5256E+07
  0.2462E+07
  0.1314E+08
  0.1481E+07
  0.6167E+07
  0.6666E+07
  0.2497E+07
  0.3050E+08
  0.1352E+07
  0.1169E+07
  0.3051E+07
  0.5293E+07
  0.1670E+07
  0.1361E+08
  0.2038E+07
  0.5502E+07
  0.4086E+07
  0.2191E+07
  0.7104E+06
  0.6672E+07
  0.2947E+07
  0.2371E+07
  0.2699E+07
  0.1252E+05
  0.7911E+07
  0.3795E+07
  0.9104E+07
  0.2302E+08
  0.1888E+07
  0.3191E+07
  0.1653E+07
  0.2598E+08
  0.5533E+07
  0.2617E+07
  0.5088E+07
  0.1814E+08
  0.5053E+07
  0.1555E+08
  0.3889E+07
  0.3843E+07
  0.4422E+07
  0.7142E+07
  0.1628E+07
  0.1014E+08
  0.6857E+07
  0.1048E+08
  0.3363E+08
  0.1338E+08
  0.2535E+07
  0.4202E+07
  0.1375E+08
  0.1080E+07
  0.1154E+08
  0.1986E+07
  0.6989E+07
  0.8965E+07
  0.1556E+08
  0.2790E+05
  0.9540E+07
  0.4560E+07
  0.3476E+07
  0.2759E+07
  0.1527E+08
  0.4163E+07
  0.9753E+07
  0.4347E+07
  0.2776E+07
  0.1373E+08
  0.2399E+07
  0.2299E+07
  0.5708E+08
  0.4550E+07
  0.1671E+08
  0.6917E+07
  0.2465E+08
  0.6179E+07
  0.8784E+07
  0.2665E+07
  0.2772E+07
  0.3086E+07
  0.1451E+07
  0.5188E+07
  0.1976E+07
  0.7032E+07
  0.2042E+07
  0.4286E+07
  0.5327E+07
  0.1475E+08
  0.3443E+07
  0.1017E+08
  0.9581E+07
  0.4404E+07
  0.9474E+07
  0.4320E+07
  0.4883E+07
  0.1780E+08
  0.4109E+07
  0.3577E+07
  0.3918E+07
  0.3406E+07
  0.1040E+08
  0.2830E+08
  0.2052E+07
  0.2286E+07
  0.1749E+07
  0.2620E+07
  0.5569E+07
  0.2954E+07
  0.3808E+07
  0.1700E+08
  0.3758E+07
  0.3031E+07
  0.1435E+08
  0.3330E+07
  0.2243E+07
  0.3498E+07
  0.3410E+07
  0.9152E+04
  0.1771E+05
  0.4699E+07
  0.3118E+07
  0.2538E+07
  0.1277E+08
  0.2312E+07
  0.5217E+07
  0.6253E+07
  0.2568E+07
  0.1164E+08
  0.6378E+07
  0.3068E+07
  0.1280E+08
  0.2591E+07
  0.1107E+08
  0.4208E+07
  0.2260E+08
  0.7953E+07
  0.2676E+07
  0.1229E+08
  0.1722E+08
  0.8230E+07
  0.8874E+07
  0.8112E+07
  0.1890E+07
  0.7911E+07
  0.6774E+07
  0.2146E+07
  0.1494E+08
  0.2031E+07
  0.3862E+07
  0.1452E+08
  0.4029E+07
  0.3236E+08
  0.1383E+07
  0.2475E+08
  0.1206E+08
  0.1639E+07
  0.1644E+08
  0.1674E+07
  0.2038E+08
  0.1779E+08
  0.1032E+07
  0.5517E+07
  0.3176E+07
  0.2075E+07
  0.2835E+07
  0.2492E+07
  0.1789E+08
  0.4127E+07
  0.3615E+08
  0.5267E+07
  0.2540E+07
  0.8434E+07
  0.2428E+07
  0.1654E+08
  0.2065E+08
  0.6511E+07
  0.1809E+07
  0.2813E+07
  0.5040E+07
  0.3047E+05
  0.9755E+07
  0.2085E+08
  0.1657E+08
  0.1097E+07
  0.4290E+07
  0.5813E+07
  0.2573E+08
  0.2022E+07
  0.8117E+07
  0.1848E+07
  0.9234E+07
  0.1408E+08
  0.5683E+07
  0.2044E+08
  0.1597E+07
  0.9671E+07
  0.5909E+07
  0.1674E+07
  0.4061E+08
  0.1248E+08
  0.2283E+07
  0.1506E+07
  0.2858E+07
  0.1135E+08
  0.1905E+07
  0.1398E+07
  0.2841E+08
  0.9268E+07
  0.6611E+07
  0.2205E+07
  0.5006E+07
  0.7844E+07
  0.3550E+07
  0.9762E+07
  0.2828E+07
  0.3337E+07
  0.2527E+08
  0.2822E+07
  0.1407E+08
  0.3193E+07
  0.2351E+07
  0.4607E+07
  0.1713E+07
  0.2006E+08
  0.3882E+07
  0.7153E+07
  0.5093E+07
  0.1961E+07
  0.5865E+07
  0.2334E+07
  0.6338E+08
  0.1665E+07
  0.9400E+07
  0.1778E+07
  0.6109E+07
  0.2513E+07
  0.6524E+07
  0.6648E+07
  0.1771E+07
  0.1327E+08
  0.1626E+08
  0.7413E+04
  0.1722E+08
  0.3634E+07
  0.6592E+07
  0.7470E+07
  0.2011E+07
  0.9171E+07
  0.8022E+07
  0.8613E+07
  0.1949E+07
  0.5069E+07
  0.5814E+07
  0.3814E+08
  0.4113E+07
  0.1972E+07
  0.5243E+07
  0.1615E+08
  0.3468E+08
  0.2147E+07
  0.1883E+08
  0.2032E+07
  0.1332E+08
  0.9836E+07
  0.2510E+07
  0.1929E+08
  0.2954E+07
  0.3208E+07
  0.2017E+08
  0.2948E+07
  0.8987E+07
  0.2428E+07
  0.2142E+08
  0.1753E+05
  0.8280E+07
  0.1240E+07
  0.1203E+08
  0.3529E+08
  0.4284E+07
  0.1819E+07
  0.3467E+07
  0.1609E+08
  0.1142E+08
  0.1353E+08
  0.6682E+07
  0.2605E+07
  0.1109E+08
  0.3145E+07
  0.1544E+07
  0.2603E+07
  0.1567E+07
  0.8925E+07
  0.1428E+07
  0.2481E+07
  0.1867E+07
  0.3999E+07
  0.2061E+07
  0.1359E+08
  0.5472E+07
  0.2423E+07
  0.5362E+07
  0.3269E+07
  0.1181E+05
  0.3977E+05
  0.3912E+07
  0.5026E+07
  0.6100E+07
  0.3206E+07
  0.2502E+08
  0.1365E+08
  0.3730E+07
  0.1911E+07
  0.2311E+08
  0.1568E+07
  0.2174E+08
  0.1700E+07
  0.1785E+08
  0.3590E+07
  0.2094E+08
  0.2627E+07
  0.1073E+08
  0.1584E+08
  0.2925E+07
  0.1503E+08
  0.1779E+07
  0.1629E+08
  0.2519E+07
  0.1657E+08
  0.3254E+07
  0.2923E+07
  0.6647E+07
  0.1122E+08
  0.3070E+07
  0.1176E+08
  0.1721E+05
  0.6003E+07
  0.3718E+07
  0.5474E+07
  0.2239E+08
  0.2258E+07
  0.4542E+07
  0.7695E+07
  0.3342E+07
  0.1612E+08
  0.1701E+07
  0.1464E+07
  0.4759E+07
  0.1219E+07
  0.8958E+07
  0.6128E+07
  0.3358E+07
  0.2844E+07
  0.5667E+07
  0.2067E+07
  0.3905E+07
  0.1910E+07
  0.6049E+07
  0.1761E+07
  0.2613E+07
  0.1408E+08
  0.2136E+07
  0.2063E+08
  0.2576E+07
  0.1989E+07
  0.1850E+07
  0.1016E+08
  0.6048E+07
  0.5568E+07
  0.5489E+07
  0.3707E+07
  0.4989E+07
  0.3356E+07
  0.1049E+07
  0.3399E+07
  0.5653E+07
  0.1242E+08
  0.2686E+07
  0.1323E+08
  0.3980E+07
  0.4146E+07
  0.2531E+07
  0.2572E+07
  0.2413E+08
  0.7989E+07
  0.4562E+07
  0.1560E+08
  0.4547E+07
  0.7662E+07
  0.2064E+07
  0.2529E+08
  0.1212E+07
  0.8720E+06
  0.4771E+07
  0.2213E+07
  0.4628E+07
  0.1014E+08
  0.1815E+07
  0.1926E+05
  0.1073E+08
  0.3681E+07
  0.5017E+07
  0.1828E+08
  0.4067E+07
  0.1170E+08
  0.5478E+07
  0.1430E+07
  0.6033E+07
  0.4608E+07
  0.2860E+08
  0.2054E+07
  0.1697E+08
  0.2663E+07
  0.1970E+08
  0.2619E+07
  0.5043E+07
  0.3156E+07
  0.2404E+07
  0.6883E+07
  0.1997E+08
  0.1874E+07
  0.1250E+08
  0.8508E+07
  0.2411E+07
  0.9114E+07
  0.2200E+07
  0.1771E+08
  0.2804E+08
  0.1800E+07
  0.1097E+05
  0.2747E+08
  0.6196E+07
  0.1449E+08
  0.2450E+08
  0.1322E+08
  0.3946E+07
  0.1510E+08
  0.2848E+07
  0.1359E+08
  0.2254E+07
  0.2470E+07
  0.1038E+08
  0.5742E+07
  0.4767E+07
  0.2626E+07
  0.4020E+07
  0.2673E+07
  0.1330E+08
  0.2137E+07
  0.1460E+08
  0.8403E+06
  0.2786E+07
  0.1533E+08
  0.3673E+07
  0.2296E+07
  0.1752E+07
  0.1654E+07
  0.1034E+08
  0.6082E+07
  0.2410E+07
  0.6115E+07
  0.2265E+05
  0.5319E+07
  0.1208E+07
  0.1210E+07
  0.4080E+07
  0.1961E+07
  0.1250E+08
  0.8513E+06
  0.4392E+07
  0.3619E+08
  0.6005E+07
  0.3003E+07
  0.2503E+07
  0.1978E+08
  0.4487E+07
  0.2718E+07
  0.4813E+07
  0.1863E+08
  0.1557E+07
  0.2686E+07
  0.3697E+08
  0.3045E+07
  0.2894E+07
  0.3664E+07
  0.1987E+08
  0.1153E+08
  0.3286E+07
  0.1050E+08
  0.2309E+07
  0.3043E+07
  0.2967E+07
  0.1144E+05
  0.2951E+05
  0.3424E+07
  0.2791E+07
  0.3744E+07
  0.2531E+07
  0.4433E+07
  0.2790E+08
  0.5761E+07
  0.2949E+07
  0.3856E+07
  0.6031E+07
  0.1680E+08
  0.2605E+07
  0.1066E+08
  0.4265E+07
  0.3468E+08
  0.1209E+07
  0.1005E+08
  0.2812E+07
  0.1043E+08
  0.1536E+08
  0.2542E+07
  0.7513E+07
  0.1177E+08
  0.4214E+07
  0.2996E+07
  0.4079E+07
  0.2394E+07
  0.4793E+07
  0.6199E+07
  0.6011E+07
  0.1090E+08
  0.9642E+06
  0.3031E+08
  0.1266E+08
  0.4008E+07
  0.4921E+07
  0.2262E+07
  0.4038E+07
  0.1733E+08
  0.7002E+07
  0.1258E+08
  0.4046E+07
  0.2728E+07
  0.9498E+07
  0.3890E+07
  0.2254E+08
  0.8958E+07
  0.3941E+07
  0.9885E+07
  0.5228E+07
  0.2592E+07
  0.1664E+08
  0.1829E+07
  0.2264E+08
  0.1189E+08
  0.2172E+07
  0.9002E+07
  0.1087E+08
  0.2338E+07
  0.3019E+07
  0.1127E+05
  0.2980E+05
  0.1869E+07
  0.2220E+08
  0.8211E+07
  0.2168E+08
  0.3907E+07
  0.1984E+08
  0.7606E+07
  0.2271E+07
  0.3585E+07
  0.3020E+07
  0.1395E+08
  0.6388E+07
  0.2256E+07
  0.8180E+07
  0.5674E+07
  0.2322E+07
  0.1947E+08
  0.3747E+07
  0.2358E+08
  0.9478E+07
  0.2766E+07
  0.9752E+07
  0.1453E+08
  0.4787E+07
  0.2147E+07
  0.2578E+07
  0.3469E+08
  0.6905E+07
  0.3736E+07
  0.1231E+08
  0.1556E+08
  0.8455E+07
  0.3624E+07
  0.4095E+07
  0.4944E+07
  0.5337E+07
  0.2217E+07
  0.5155E+07
  0.1407E+08
  0.4751E+07
  0.3795E+07
  0.2859E+07
  0.1072E+08
  0.3046E+07
  0.1116E+08
  0.1601E+07
  0.7968E+07
  0.1711E+07
  0.2454E+07
  0.5727E+07
  0.2530E+07
  0.1298E+07
  0.2807E+07
  0.6607E+07
  0.2507E+08
  0.8692E+07
  0.4168E+07
  0.5313E+07
  0.2610E+07
  0.5046E+07
  0.1136E+05
  0.3030E+05
  0.3764E+07
  0.3714E+07
  0.8994E+07
  0.4935E+07
  0.8695E+07
  0.1773E+08
  0.3159E+07
  0.1245E+08
  0.2468E+08
  0.1405E+08
  0.4517E+07
  0.4984E+07
  0.5372E+07
  0.1905E+07
  0.3353E+08
  0.2217E+07
  0.2397E+07
  0.6749E+07
  0.1696E+08
  0.1799E+07
  0.1759E+08
  0.1348E+07
  0.1464E+08
  0.2758E+07
  0.2633E+07
  0.1477E+08
  0.1779E+07
  0.1300E+08
  0.6165E+07
  0.1989E+07
  0.7020E+04
  0.1626E+08
  0.3390E+07
  0.1359E+08
  0.4669E+07
  0.4069E+07
  0.1415E+07
  0.4447E+07
  0.1149E+08
  0.3612E+07
  0.4133E+07
  0.3693E+07
  0.1630E+08
  0.1396E+08
  0.1139E+08
  0.8177E+07
  0.2131E+07
  0.1075E+08
  0.2459E+07
  0.1162E+07
  0.9726E+07
  0.2011E+07
  0.5700E+07
  0.2999E+07
  0.8293E+07
  0.3854E+07
  0.2341E+07
  0.2855E+07