# vtk DataFile Version 3.0
rivers
ASCII
DATASET UNSTRUCTURED_GRID
POINTS       2420 float
           0.000           0.000           0.000
        1600.000           0.000           0.000
        3200.000           0.000           0.000
        4800.000           0.000           0.000
        6400.000           0.000           0.000
        8000.000           0.000           0.000
        9600.000           0.000           0.000
       11200.000           0.000           0.000
       12800.000           0.000           0.000
       14400.001           0.000           0.000
       16000.000           0.000           0.000
       17600.000           0.000           0.000
       19200.000           0.000           0.000
       20799.999           0.000           0.000
       22400.000           0.000           0.000
       24000.001           0.000           0.000
       25599.999           0.000           0.000
       27200.000           0.000           0.000
       28800.001           0.000           0.000
       30400.000           0.000           0.000
       32000.000           0.000           0.000
       33599.999           0.000           0.000
       35200.000           0.000           0.000
       36800.001           0.000           0.000
       38399.999           0.000           0.000
       40000.000           0.000           0.000
       41599.998           0.000           0.000
       43200.002           0.000           0.000
       44800.000           0.000           0.000
       46399.999           0.000           0.000
       48000.002           0.000           0.000
       49600.000           0.000           0.000
       51199.999           0.000           0.000
       52800.002           0.000           0.000
       54400.001           0.000           0.000
       55999.999           0.000           0.000
       57600.002           0.000           0.000
       59200.001           0.000           0.000
       60799.999           0.000           0.000
       62399.998           0.000           0.000
       64000.001           0.000           0.000
       65599.999           0.000           0.000
       67199.998           0.000           0.000
       68800.001           0.000           0.000
       70400.000           0.000           0.000
       71999.998           0.000           0.000
       73600.001           0.000           0.000
       75200.000           0.000           0.000
       76799.998           0.000           0.000
       78400.002           0.000           0.000
       80000.000           0.000           0.000
           0.000        1600.000           0.000
        1820.535        1836.129         191.867
        4436.497        1560.645         234.918
        8231.839        1585.959         209.335
       11192.297        1979.624         146.152
       14535.388        1860.001          62.710
       17224.315        1919.917         409.612
       20899.237        1802.853         332.149
       23731.335        1792.943         260.980
       27507.238        1603.221         230.673
       30065.602        1613.570         299.700
       33371.579        1994.991          28.524
       37099.539        1414.823         262.480
       38196.713        1837.356          89.334
       43418.644        1867.336          45.657
       49975.028        1831.460         216.286
       52954.322        1538.422         135.815
       55816.240        1531.934         179.076
       59004.449        1641.677          30.936
       60471.826        1510.939         329.907
       63784.513        1656.536         232.198
       67301.210        1771.228         152.557
       70381.695        1920.216         334.325
       72217.113        1448.806          87.348
       75069.462        1621.662         159.190
       78696.327        1722.356         252.946
       80000.000        1600.000           0.000
           0.000        3200.000           0.000
        3274.399        3217.174         565.759
        5160.666        3300.186         210.396
        6043.012        3262.445         121.857
        9502.865        3552.908         324.973
       11056.006        2840.019         214.750
       14606.628        2840.755          89.884
       17562.634        3511.308         206.824
       18833.142        3539.080          57.865
       22026.411        2868.051         280.007
       25600.029        2863.835         100.507
       27192.156        3106.980         318.178
       30375.600        2888.881         261.966
       33224.678        2857.386          39.153
       36841.038        3085.085         158.000
       40238.304        3524.647          71.948
       43557.179        3128.631          71.414
       46228.872        2830.415         149.108
       48146.017        3166.706         436.800
       51153.215        2952.745          50.180
       53124.514        2981.904         247.693
       56001.007        3429.944         474.378
       59307.581        3225.477          54.619
       62124.444        3154.870         385.995
       64132.610        2904.590          91.457
       67439.924        3451.420         537.491
       68998.763        3472.006         155.537
       72219.436        2879.026         144.699
       75532.535        3132.944         345.959
       78652.387        3551.841         175.436
       80000.000        3200.000           0.000
           0.000        4800.000           0.000
        1400.060        4439.660         183.798
        4786.648        4655.285         375.882
       11454.778        4403.585         381.355
       14098.429        4923.032         156.173
       17912.789        5043.475         112.797
       20446.875        4859.061          99.344
       24108.597        4895.159         394.521
       27234.832        4431.193         264.169
       28696.423        4449.033         614.318
       32196.694        4589.490          64.405
       33867.228        4797.771         459.859
       34933.129        4760.558         542.481
       38067.139        5053.208         498.902
       41605.852        4581.133         305.480
       44854.687        5021.321         514.733
       48175.269        4416.823         407.363
       51163.202        5122.950          89.345
       54186.876        4703.411         521.360
       56317.818        4828.699         357.135
       59169.326        5108.954          83.890
       62536.999        4516.819         157.345
       65848.099        4445.450         387.407
       68694.276        4766.024         220.835
       71946.222        4752.098         243.181
       75433.121        5067.460         613.169
       78033.243        4664.320         189.358
       80000.000        4800.000           0.000
           0.000        6400.000           0.000
        2841.623        6773.290         237.438
        6245.685        6376.243         477.914
        7744.385        6030.238         305.295
       11368.686        6592.994         342.769
       14270.010        6704.916         313.976
       17330.427        6370.488         162.065
       19571.144        6573.041         382.583
       22641.152        6627.002         568.335
       23763.572        6012.529         480.926
       27463.089        6427.221         508.071
       30273.002        6504.167         239.596
       33884.178        6077.220         243.249
       35390.886        6255.305         314.487
       38075.664        6205.118         537.896
       40048.604        6389.405         134.017
       43255.311        6307.072         155.372
       46126.564        6231.346         441.103
       48285.057        6596.744         326.231
       51294.080        6157.575         109.770
       54250.249        6543.358         642.009
       57921.865        6224.397         181.373
       59558.312        6004.572         100.004
       62425.662        6132.109         207.524
       65724.696        6341.122         632.312
       68956.079        6674.843         513.581
       72380.520        6490.972         449.089
       75318.037        6459.550         521.715
       78160.955        6114.578         243.866
       80000.000        6400.000           0.000
           0.000        8000.000           0.000
        3576.129        8217.635         248.916
        5061.593        7652.754         387.062
        8105.944        7856.844         482.172
       11121.498        7830.817         500.756
       14531.786        8256.985         531.723
       16036.950        7761.051         390.505
       19087.239        8020.414         536.481
       22626.171        7850.784         346.901
       25653.785        8135.625         461.692
       28733.316        8014.857         344.858
       30647.917        7622.140         111.943
       31669.813        8123.016         348.488
       35544.551        8083.612         411.374
       38771.621        7743.567         178.149
       41941.639        8315.419         484.318
       44649.095        8053.831         324.831
       48005.993        8300.872         558.368
       51584.272        8303.210         355.350
       52951.115        7723.006         342.391
       55834.828        8389.314         438.121
       58839.904        7674.993         131.424
       60484.772        8202.290         459.457
       63784.723        8145.830         292.210
       67326.420        8175.747         699.234
       68571.734        8073.207         684.556
       72193.925        8373.058         738.466
       73714.578        7878.720         431.416
       77044.523        8185.581         157.895
       78448.742        7636.455          86.771
       80000.000        8000.000           0.000
           0.000        9600.000           0.000
        3060.393        9702.503         101.114
        6737.398        9989.628         227.423
        9830.599        9930.901         438.335
[...]
POINT_DATA       2420
SCALARS discharge float 1
LOOKUP_TABLE default
  0.1006E+05
  0.1938E+07
  0.1143E+08
  0.1988E+07
  0.3764E+08
  0.1239E+07
  0.2321E+08
  0.1359E+07
  0.3053E+07
  0.1270E+07
  0.6047E+08
  0.3091E+07
  0.1561E+09
  0.1550E+07
  0.1241E+08
  0.2178E+07
  0.3770E+08
  0.1858E+07
  0.5862E+07
  0.3034E+07
  0.2997E+09
  0.1837E+07
  0.2517E+07
  0.2777E+07
  0.1756E+07
  0.1349E+09
  0.2293E+07
  0.1167E+07
  0.1281E+09
  0.1956E+07
  0.5586E+07
  0.2400E+07
  0.1475E+09
  0.1525E+07
  0.1197E+08
  0.1044E+07
  0.2090E+09
  0.3075E+07
  0.1906E+07
  0.5664E+07
  0.1086E+07
  0.6915E+08
  0.1076E+07
  0.2830E+08
  0.3071E+08
  0.8370E+06
  0.1893E+07
  0.1001E+07
  0.1168E+08
  0.1141E+07
  0.7306E+04
  0.3353E+05
  0.5337E+07
  0.2902E+07
  0.3945E+07
  0.9107E+07
  0.5683E+08
  0.6702E+06
  0.1496E+07
  0.2411E+07
  0.3040E+07
  0.1502E+07
  0.2881E+09
  0.1531E+07
  0.3171E+08
  0.1057E+09
  0.1812E+07
  0.9470E+07
  0.6754E+07
  0.1992E+09
  0.1371E+07
  0.1391E+07
  0.8990E+07
  0.8461E+06
  0.2845E+08
  0.8537E+07
  0.2400E+07
  0.7688E+04
  0.3294E+05
  0.5272E+06
  0.7122E+07
  0.2424E+08
  0.3814E+07
  0.6255E+07
  0.5213E+08
  0.3092E+07
  0.1488E+09
  0.3412E+07
  0.2918E+08
  0.2830E+07
  0.4526E+07
  0.2808E+09
  0.2662E+08
  0.9512E+08
  0.1013E+09
  0.1611E+08
  0.9348E+06
  0.1416E+09
  0.6461E+07
  0.1529E+07
  0.1944E+09
  0.1529E+07
  0.5227E+08
  0.5971E+06
  0.2157E+08
  0.2508E+08
  0.2986E+07
  0.4373E+07
  0.2416E+07
  0.1909E+05
  0.6486E+07
  0.4089E+07
  0.3462E+07
  0.4173E+08
  0.4033E+08
  0.1004E+09
  0.1256E+07
  0.7216E+07
  0.5526E+06
  0.2773E+09
  0.7055E+06
  0.5616E+06
  0.1327E+07
  0.1319E+07
  0.8418E+06
  0.1888E+07
  0.1346E+09
  0.1932E+07
  0.3964E+07
  0.1816E+09
  0.4642E+08
  0.4568E+07
  0.1672E+08
  0.1511E+08
  0.9430E+06
  0.4368E+07
  0.1199E+08
  0.1499E+08
  0.4740E+07
  0.2310E+07
  0.1190E+08
  0.6566E+07
  0.4998E+07
  0.3397E+08
  0.1280E+07
  0.4543E+06
  0.1919E+07
  0.2788E+07
  0.3034E+07
  0.7691E+07
  0.1669E+08
  0.1215E+07
  0.8785E+08
  0.8757E+08
  0.4872E+07
  0.6788E+07
  0.1172E+09
  0.1150E+07
  0.1310E+08
  0.1639E+09
  0.4055E+08
  0.1319E+07
  0.1663E+07
  0.3272E+07
  0.1272E+07
  0.3218E+07
  0.2076E+08
  0.8972E+07
  0.5140E+07
  0.3157E+07
  0.4764E+07
  0.3061E+07
  0.2044E+07
  0.3365E+07
  0.6710E+06
  0.5458E+07
  0.7859E+07
  0.4129E+07
  0.2508E+09
  0.1611E+07
  0.1173E+08
  0.7823E+08
  0.1409E+07
  0.6852E+07
  0.2887E+07
  0.1469E+07
  0.4603E+07
  0.4798E+07
  0.1566E+09
  0.2208E+07
  0.2804E+08
  0.1779E+07
  0.2166E+07
  0.9727E+06
  0.5661E+07
  0.1766E+08
  0.2074E+08
  0.2198E+07
  0.3253E+05
  0.4454E+08
  0.2725E+08
  0.7837E+07
  0.1759E+08
  0.1338E+07
  0.2690E+07
  0.2165E+08
  0.7692E+06
  0.1551E+07
  0.5077E+07
  0.2420E+09
  0.1006E+07
  0.9427E+06
  0.6924E+08
  0.1325E+07
  0.1636E+07
  0.1043E+07
  0.1369E+07
  0.9010E+08
  0.5405E+07
  0.8147E+06
  0.4457E+07
  0.1291E+07
  0.1910E+07
  0.3291E+07
  0.9625E+06
  0.7879E+06
  0.1938E+07
  0.2183E+07
  0.1269E+05
  0.5154E+08
  0.1672E+07
  0.2175E+07
  0.8684E+07
  0.2101E+07
  0.3480E+07
  0.2100E+07
  0.4258E+08
  0.6872E+07
  0.3014E+07
  0.2227E+09
  0.1164E+07
  0.3311E+07
  0.1198E+08
  0.4172E+07
  0.3324E+07
  0.2824E+07
  0.2746E+07
  0.6394E+07
  0.1159E+07
  0.1690E+07
  0.1578E+07
  0.1393E+09
  0.3448E+07
  0.9355E+07
  0.1225E+07
  0.5484E+07
  0.1059E+07
  0.5077E+07
  0.1255E+07
  0.4577E+07
  0.1004E+05
  0.1198E+08
  0.5289E+06
  0.7299E+06
  0.2412E+07
  0.9576E+06
  0.1683E+07
  0.3448E+07
  0.9069E+07
  0.9040E+06
  0.6643E+07
  0.1220E+07
  0.1008E+08
  0.8011E+08
  0.1249E+09
  0.3561E+07
  0.7015E+07
  0.3924E+08
  0.1681E+07
  0.4722E+08
  0.5067E+07
  0.2072E+07
  0.6952E+08
  0.1363E+07
  0.5938E+08
  0.7267E+08
  0.8898E+07
  0.3016E+07
  0.7196E+06
  0.2088E+08
  0.2283E+08
  0.4954E+08
  0.5592E+08
  0.5896E+08
  0.6737E+08
  0.1810E+05
  0.7441E+07
  0.4463E+07
  0.6403E+07
  0.4384E+07
  0.3637E+07
  0.6921E+07
  0.3038E+07
  0.2313E+08
  0.1471E+07
  0.1190E+08
  0.2771E+07
  0.1127E+09
  0.2197E+07
  0.1427E+07
  0.3100E+08
  0.2283E+07
  0.3886E+08
  0.3748E+07
  0.5667E+07
  0.2680E+07
  0.3025E+08
  0.6091E+08
  0.2141E+07
  0.3766E+07
  0.6856E+07
  0.2380E+07
  0.1873E+07
  0.2237E+07
  0.6276E+07
  0.8640E+08
  0.7778E+08
  0.5955E+08
  0.4466E+08
  0.2523E+08
  0.2773E+07
  0.3744E+07
  0.1524E+08
  0.1449E+07
  0.6200E+07
  0.1808E+07
  0.2471E+07
  0.9570E+08
  0.4105E+07
  0.3186E+07
  0.2724E+07
  0.1946E+08
  0.1107E+07
  0.2681E+08
  0.2111E+07
  0.2028E+07
  0.4542E+08
  0.1073E+08
  0.1030E+07
  0.1603E+07
  0.9946E+06
  0.2053E+07
  0.1701E+07
  0.7803E+07
  0.1650E+07
  0.1318E+05
  0.1898E+05
  0.1859E+07
  0.1398E+07
  0.1403E+07
  0.7254E+06
  0.1888E+07
  0.5823E+07
  0.3947E+07
  0.1441E+07
  0.2514E+07
  0.4239E+08
  0.1199E+08
  0.6464E+08
  0.2630E+08
  0.3301E+07
  0.1420E+08
  0.1032E+08
  0.4263E+07
  0.1014E+08
  0.1720E+08
  0.1640E+08
  0.1465E+08
  0.4268E+08
  0.2395E+07
  0.1567E+08
  0.3618E+08
  0.1758E+07
  0.2456E+07
  0.1106E+09
  0.1144E+09
  0.3239E+05
  0.9275E+06
  0.5159E+07
  0.3588E+07
  0.8786E+06
  0.3258E+07
  0.1498E+07
  0.4621E+07
  0.9729E+06
  0.2690E+08
  0.5324E+07
  0.1840E+07
  0.4403E+08
  0.5921E+07
  0.1093E+08
  0.7105E+07
  0.5716E+07
  0.5921E+07
  0.8726E+07
  0.8744E+07
  0.9781E+07
  0.8181E+07
  0.5839E+07
  0.2058E+07
  0.6027E+07
  0.9842E+06
  0.6635E+08
  0.8616E+08
  0.1909E+07
  0.5235E+07
  0.1715E+09
  0.1632E+09
  0.1401E+09
  0.1149E+09
  0.9332E+08
  0.8704E+08
  0.5834E+08
  0.2642E+08
  0.3141E+07
  0.1457E+08
  0.1298E+07
  0.3961E+07
  0.1378E+08
  0.2983E+07
  0.7479E+06
  0.1336E+07
  0.8422E+06
  0.2726E+07
  0.8660E+07
  0.3541E+07
  0.5428E+07
  0.4155E+07
  0.3449E+07
  0.1030E+07
  0.1630E+07
  0.1988E+08
  0.5726E+06
  0.2507E+07
  0.1487E+07
  0.2138E+07
  0.1284E+08
  0.3138E+05
  0.1874E+07
  0.6104E+07
  0.4788E+07
  0.9817E+07
  0.5396E+07
  0.9358E+07
  0.2882E+07
  0.2429E+07
  0.6955E+07
  0.1587E+07
  0.5193E+07
  0.6575E+07
  0.1236E+08
  0.1880E+07
  0.1173E+08
  0.1074E+08
  0.1254E+08
  0.1938E+07
  0.2185E+07
  0.1057E+07
  0.5329E+07
  0.8871E+06
  0.8609E+07
  0.1240E+07
  0.1568E+07
  0.5398E+06
  0.1708E+07
  0.4335E+07
  0.1282E+08
  0.2216E+07
  0.6289E+07
  0.2805E+07
  0.6695E+06
  0.6629E+06
  0.2629E+07
  0.7238E+06
  0.4789E+07
  0.2992E+07
  0.2692E+07
  0.3976E+07
  0.1490E+08
  0.1502E+07
  0.6439E+07
  0.7246E+07
  0.3716E+07
  0.1452E+08
  0.1762E+07
  0.4451E+07
  0.1185E+08
  0.2133E+07
  0.1404E+08
  0.3087E+07
  0.8829E+06
  0.2138E+07
  0.1982E+07
  0.1702E+07
  0.8294E+06
  0.2812E+07
  0.2660E+07
  0.2201E+07
  0.7392E+04
  0.2451E+08
  0.2099E+08
  0.1075E+08
  0.4525E+07
  0.6973E+06
  0.5932E+07
  0.4812E+07
  0.3563E+07
  0.1756E+07
  0.5835E+07
  0.2682E+07
  0.5378E+08
  0.1034E+08
  0.1728E+07
  0.4513E+07
  0.3263E+08
  0.4772E+07
  0.4412E+07
  0.2688E+08
  0.2559E+07
  0.4464E+07
  0.2614E+07
  0.9566E+07
  0.4861E+07
  0.3762E+07
  0.1456E+08
  0.2867E+08
  0.4829E+08
  0.5994E+08
  0.7114E+08
  0.7968E+08
  0.1144E+05
  0.9659E+07
  0.6363E+07
  0.1848E+07
  0.4865E+07
  0.1297E+08
  0.7673E+07
  0.6814E+07
  0.6761E+07
  0.6894E+07
  0.2407E+07
  0.5316E+07
  0.9539E+07
  0.1189E+08
  0.7694E+07
  0.1015E+08
  0.4783E+07
  0.4566E+07
  0.2680E+07
  0.4577E+07
  0.2702E+08
  0.6930E+07
  0.5325E+07
  0.2548E+08
  0.2255E+07
  0.1720E+07
  0.1301E+07
  0.2748E+07
  0.3656E+07
  0.1590E+07
  0.9001E+08
  0.4317E+07
  0.1360E+07
  0.2354E+07
  0.1985E+09
  0.1793E+09
  0.1476E+09
  0.1263E+09
  0.4906E+08
  0.2401E+08
  0.1483E+08
  0.3191E+07
  0.5693E+07
  0.2220E+08
  0.3727E+07
  0.1820E+08
  0.3020E+08
  0.1414E+08
  0.3519E+07
  0.1784E+07
  0.4476E+07
  0.1981E+08
  0.5829E+08
  0.7358E+07
  0.1641E+07
  0.2589E+07
  0.3331E+07
  0.1095E+07
  0.5170E+07
  0.7580E+04
  0.1202E+07
  0.2175E+07
  0.2120E+09
  0.6095E+06
  0.3037E+07
  0.9244E+06
  0.1797E+07
  0.1616E+08
  0.2599E+08
  0.9496E+07
  0.7138E+07
  0.5710E+07
  0.3478E+07
  0.4240E+07
  0.7291E+07
  0.3599E+07
  0.1066E+08
  0.3718E+07
  0.4180E+07
  0.9428E+07
  0.4814E+07
  0.5644E+07
  0.2026E+07
  0.1281E+09
  0.1334E+09
  0.1620E+09
  0.1756E+09
  0.1963E+09
  0.1437E+07
  0.1585E+07
  0.5515E+07
  0.2972E+09
  0.2930E+09
  0.7064E+08
  0.6005E+08
  0.5562E+08
  0.6021E+07
  0.1743E+07
  0.8396E+07
  0.1801E+08
  0.3039E+07
  0.2911E+07
  0.1464E+08
  0.8308E+07
  0.2410E+07
  0.1181E+08
  0.2636E+07
  0.2087E+08
  0.3602E+07
  0.2245E+08
  0.4142E+07
  0.3102E+08
  0.7633E+07
  0.1855E+08
  0.2341E+07
  0.5433E+08
  0.2757E+07
  0.2764E+07
  0.9264E+06
  0.2019E+09
  0.1840E+07
  0.8799E+04
  0.2169E+05
  0.3470E+07
  0.2608E+07
  0.4415E+07
  0.3044E+08
  0.1947E+08
  0.7040E+07
  0.2246E+07
  0.6361E+07
  0.3642E+07
  0.3549E+08
  0.2740E+07
  0.2504E+07
  0.2184E+08
  0.5037E+07
  0.3421E+07
  0.8390E+07
  0.5660E+07
  0.8725E+07
  0.1610E+08
  0.3866E+07
  0.8132E+07
  0.3410E+08
  0.5575E+06
  0.2458E+07
  0.1290E+07
  0.1450E+07
  0.6514E+08
  0.2795E+09
  0.2806E+09
  0.1543E+08
  0.8361E+07
  0.3146E+07
  0.3473E+07
  0.1480E+07
  0.3686E+07
  0.1671E+07
  0.2913E+07
  0.1532E+07
  0.9448E+07
  0.4765E+07
  0.1016E+08
  0.2799E+08
  0.5941E+07
  0.2905E+07
  0.1062E+08
  0.3627E+08
  0.5703E+07
  0.5033E+07
  0.3454E+07
  0.6062E+07
  0.2175E+07
  0.1136E+08
  0.2429E+07
  0.1329E+08
  0.3405E+08
  0.3965E+08
  0.6044E+08
  0.3157E+07
  0.1148E+07
  0.1226E+05
  0.3420E+05
  0.1956E+07
  0.3996E+07
  0.4091E+07
  0.1748E+07
  0.1084E+08
  0.6465E+07
  0.5130E+07
  0.6453E+07
  0.3075E+07
  0.1988E+08
  0.3646E+07
  0.7454E+07
  0.2140E+08
  0.3357E+07
  0.7589E+07
  0.5130E+07
  0.4576E+07
  0.9131E+07
  0.1476E+08
  0.3363E+07
  0.2460E+07
  0.4637E+07
  0.4560E+07
  0.2284E+07
  0.3010E+07
  0.2274E+07
  0.7335E+06
  0.1036E+08
  0.8082E+04
  0.3116E+09
  0.3051E+09
  0.2896E+09
  0.2553E+09
  0.2493E+09
  0.3684E+08
  0.3204E+08
  0.1532E+08
  0.1574E+08
  0.5315E+07
  0.4934E+07
  0.4153E+07
  0.7297E+07
  0.4150E+07
  0.1563E+08
  0.1366E+08
  0.3266E+07
  0.2455E+08
  0.2751E+08
  0.2183E+07
  0.8053E+07
  0.3003E+07
  0.1196E+07
  0.2623E+07
  0.3902E+06
  0.2299E+07
  0.4952E+07
  0.1970E+08
  0.1447E+08
  0.8092E+07
  0.4138E+07
  0.9329E+07
  0.1594E+07
  0.1774E+09
  0.1455E+07
  0.2655E+08
  0.2094E+07
  0.1609E+07
  0.1042E+08
  0.8024E+07
  0.8023E+07
  0.1188E+08
  0.3637E+07
  0.5985E+07
  0.3917E+08
  0.1106E+08
  0.4674E+07
  0.2733E+07
  0.5960E+07
  0.3396E+07
  0.8307E+07
  0.1204E+08
  0.1779E+08
  0.4135E+07
  0.6233E+07
  0.6568E+07
  0.2678E+07
  0.3526E+07
  0.9307E+07
  0.5787E+07
  0.2384E+07
  0.7820E+06
  0.3511E+07
  0.5275E+07
  0.4571E+07
  0.6333E+07
  0.1566E+09
  0.1351E+09
  0.1020E+09
  0.6043E+08
  0.4699E+08
  0.4134E+07
  0.2541E+07
  0.2701E+07
  0.2053E+08
  0.8761E+07
  0.9021E+07
  0.4221E+07
  0.2665E+08
  0.3987E+07
  0.1673E+08
  0.4464E+07
  0.1656E+08
  0.1880E+08
  0.1086E+09
  0.1119E+09
  0.1277E+09
  0.1427E+09
  0.1382E+07
  0.4919E+07
  0.9801E+04
  0.3136E+05
  0.2338E+07
  0.2690E+07
  0.4088E+08
  0.2065E+07
  0.1264E+07
  0.2976E+07
  0.9834E+07
  0.8248E+07
  0.3170E+08
  0.1379E+07
  0.9765E+07
  0.8388E+07
  0.4443E+07
  0.4135E+08
  0.3178E+07
  0.2552E+07
  0.3793E+07
  0.6891E+07
  0.4625E+07
  0.1670E+08
  0.6299E+07
  0.9682E+07
  0.4563E+08
  0.5378E+08
  0.7944E+06
  0.9467E+06
  0.8620E+06
  0.1558E+09
  0.2213E+07
  0.1321E+05
  0.6185E+08
  0.5637E+08
  0.3609E+07
  0.8277E+07
  0.1153E+08
  0.9705E+06
  0.2889E+07
  0.4056E+07
  0.1403E+08
  0.4563E+07
  0.6311E+07
  0.8569E+07
  0.6237E+07
  0.1961E+08
  0.4430E+07
  0.5410E+07
  0.6254E+07
  0.9127E+07
  0.3417E+07
  0.1243E+08
  0.7609E+07
  0.1305E+08
  0.1542E+08
  0.1896E+08
  0.1162E+07
  0.1851E+08
  0.2336E+08
  0.3013E+08
  0.6873E+08
  0.7791E+08
  0.2495E+09
  0.2542E+09
  0.2584E+09
  0.2914E+05
  0.2831E+08
  0.1374E+08
  0.1003E+07
  0.9140E+06
  0.2300E+07
  0.4965E+07
  0.3370E+07
  0.4340E+06
  0.1306E+07
  0.8779E+07
  0.4458E+07
  0.3923E+07
  0.7321E+08
  0.5234E+07
  0.2179E+08
  0.9268E+07
  0.3474E+08
  0.1053E+08
  0.1187E+08
  0.3673E+07
  0.4635E+07
  0.2988E+07
  0.3688E+07
  0.1038E+08
  0.1136E+08
  0.1432E+08
  0.2896E+08
  0.3444E+08
  0.1377E+07
  0.1040E+08
  0.6259E+07
  0.1215E+08
  0.2836E+08
  0.7583E+07
  0.4264E+07
  0.4500E+07
  0.5881E+07
  0.3614E+08
  0.2156E+08
  0.5118E+07
  0.4643E+07
  0.4099E+07
  0.1448E+08
  0.3445E+08
  0.4648E+07
  0.3706E+07
  0.3610E+07
  0.3290E+07
  0.8021E+07
  0.6050E+07
  0.4636E+07
  0.5631E+07
  0.1462E+07
  0.5882E+07
  0.2560E+07
  0.1390E+07
  0.4948E+07
  0.1305E+07
  0.2647E+07
  0.1008E+05
  0.1928E+05
  0.4448E+07
  0.1852E+07
  0.1527E+08
  0.6325E+08
  0.1580E+07
  0.1023E+07
  0.1212E+08
  0.8137E+07
  0.4484E+07
  0.5087E+07
  0.1375E+08
  0.4287E+07
  0.1594E+08
  0.5903E+07
  0.3394E+08
  0.1398E+08
  0.3365E+07
  0.1710E+08
  0.2262E+08
  0.9589E+07
  0.1355E+08
  0.3901E+07
  0.1259E+08
  0.1724E+07
  0.2254E+07
  0.2714E+07
  0.3007E+07
  0.2139E+07
  0.3764E+07
  0.3259E+09
  0.9667E+07
  0.3795E+07
  0.5160E+07
  0.2481E+09
  0.1574E+09
  0.1947E+07
  0.2694E+08
  0.2347E+07
  0.1738E+08
  0.1209E+08
  0.1408E+07
  0.6241E+07
  0.6469E+07
  0.3062E+07
  0.2972E+07
  0.2707E+07
  0.2402E+08
  0.5033E+07
  0.4694E+08
  0.7388E+07
  0.4403E+07
  0.4199E+07
  0.8791E+07
  0.4874E+08
  0.6548E+08
  0.7942E+08
  0.9432E+08
  0.1065E+09
  0.1089E+09
  0.3261E+05
  0.3214E+09
  0.3024E+09
  0.2965E+09
  0.1606E+07
  0.1476E+09
  0.1154E+09
  0.3751E+08
  0.2865E+08
  0.3612E+07
  0.4783E+07
  0.1154E+08
  0.6311E+07
  0.2806E+08
  0.3415E+07
  0.1351E+08
  0.8588E+07
  0.2939E+07
  0.5309E+08
  0.1889E+08
  0.3382E+07
  0.5536E+07
  0.1074E+08
  0.5168E+07
  0.3027E+07
  0.2074E+07
  0.4502E+06
  0.5706E+06
  0.1483E+07
  0.5971E+06
  0.2813E+07
  0.5914E+07
  0.1549E+07
  0.8295E+07
  0.1586E+08
  0.6299E+06
  0.1465E+08
  0.3765E+07
  0.4328E+08
  0.3163E+07
  0.2748E+07
  0.7045E+07
  0.1536E+07
  0.1874E+08
  0.4703E+07
  0.1065E+08
  0.5083E+07
  0.3488E+07
  0.7063E+07
  0.2857E+07
  0.8537E+08
  0.2216E+07
  0.1177E+08
  0.2155E+07
  0.4635E+07
  0.1373E+08
  0.1823E+08
  0.2606E+08
  0.9840E+06
  0.6200E+08
  0.6580E+08
  0.7339E+04
  0.1016E+09
  0.1795E+07
  0.8909E+06
  0.3337E+07
  0.1070E+07
  0.9473E+07
  0.3775E+07
  0.1994E+08
  0.5243E+07
  0.1757E+08
  0.4488E+07
  0.2370E+08
  0.3444E+07
  0.4354E+07
  0.7645E+07
  0.2411E+08
  0.4685E+08
  0.3726E+07
  0.2257E+08
  0.2687E+07
  0.1996E+08
  0.1049E+08
  0.1299E+07
  0.3148E+07
  0.9396E+06
  0.9789E+06
  0.3243E+07
  0.1307E+08
  0.5714E+08
  0.8002E+06
  0.6928E+08
  0.1787E+05
  0.9397E+08
  0.1833E+07
  0.2375E+07
  0.2520E+07
  0.3683E+07
  0.2487E+07
  0.2260E+07
  0.1905E+07
  0.1837E+07
  0.2550E+08
  0.3702E+08
  0.4848E+07
  0.1201E+08
  0.6435E+07
  0.1897E+07
  0.3573E+07
  0.1871E+07
  0.4934E+07
  0.2731E+07
  0.1853E+07
  0.4069E+07
  0.5555E+07
  0.5558E+07
  0.3249E+07
  0.6704E+06
  0.9416E+07
  0.3286E+07
  0.1270E+05
  0.4477E+05
  0.8274E+08
  0.7081E+08
  0.4985E+08
  0.2404E+08
  0.2116E+08
  0.7951E+07
  0.5338E+07
  0.9067E+08
  0.2690E+07
  0.1829E+07
  0.2626E+07
  0.1242E+08
  0.3196E+07
  0.8123E+07
  0.4619E+07
  0.1745E+07
  0.1395E+08
  0.3969E+07
  0.5491E+07
  0.3125E+07
  0.9127E+07
  0.2812E+08
  0.4942E+08
  0.7513E+08
  0.2339E+07
  0.3466E+07
  0.2083E+07
  0.4492E+07
  0.1233E+08
  0.1862E+05
  0.4315E+07
  0.1672E+07
  0.1585E+07
  0.4314E+07
  0.8875E+06
  0.5880E+07
  0.3271E+07
  0.2203E+07
  0.3071E+07
  0.4641E+07
  0.1923E+07
  0.7798E+06
  0.4443E+07
  0.4771E+07
  0.1747E+08
  0.8951E+07
  0.2488E+07
  0.1134E+08
  0.1337E+08
  0.9956E+07
  0.4729E+07
  0.2217E+07
  0.1078E+08
  0.9649E+07
  0.3890E+07
  0.9805E+08
  0.1070E+09
  0.1227E+09
  0.2316E+07
  0.7585E+06
  0.1959E+09
  0.4361E+07
  0.7067E+08
  0.2703E+07
  0.3087E+07
  0.3313E+07
  0.1547E+07
  0.1409E+07
  0.1300E+08
  0.4386E+07
  0.1142E+09
  0.1366E+08
  0.1583E+07
  0.1041E+08
  0.1822E+07
  0.1402E+08
  0.2820E+07
  0.8380E+07
  0.1739E+07
  0.1718E+08
  0.1187E+08
  0.6266E+07
  0.1416E+07
  0.5580E+07
  0.1287E+07
  0.9532E+06
  0.9625E+06
  0.4025E+06
  0.1916E+09
  0.1959E+09
  0.1406E+07
  0.1936E+05
  0.7717E+08
  0.1446E+07
  0.5902E+08
  0.3784E+08
  0.1258E+08
  0.2923E+07
  0.1394E+08
  0.6621E+06
  0.2201E+08
  0.3909E+07
  0.1378E+09
  0.9234E+07
  0.4234E+07
  0.4691E+08
  0.1975E+07
  0.3589E+07
  0.6645E+07
  0.1205E+08
  0.1885E+07
  0.3940E+08
  0.3319E+07
  0.1911E+07
  0.1932E+07
  0.3773E+07
  0.1066E+08
  0.2756E+08
  0.3530E+08
  0.5501E+08
  0.5758E+08
  0.1391E+07
  0.1171E+05
  0.9425E+08
  0.8502E+07
  0.1331E+07
  0.1771E+07
  0.8003E+07
  0.4012E+07
  0.4774E+07
  0.7630E+07
  0.2738E+08
  0.1936E+07
  0.1672E+08
  0.2360E+07
  0.1382E+08
  0.5376E+08
  0.4351E+08
  0.8059E+06
  0.2815E+07
  0.8009E+08
  0.2428E+07
  0.4464E+08
  0.1103E+07
  0.5206E+07
  0.1367E+07
  0.1217E+08
  0.2966E+07
  0.6145E+07
  0.2042E+07
  0.1438E+08
  0.2258E+07
  0.9652E+07
  0.1385E+08
  0.2552E+05
  0.2795E+07
  0.1341E+07
  0.8337E+07
  0.9697E+06
  0.8701E+06
  0.1273E+07
  0.1279E+07
  0.5336E+07
  0.4999E+08
  0.6003E+07
  0.1754E+09
  0.2811E+07
  0.7232E+06
  0.1865E+08
  0.5048E+08
  0.8978E+07
  0.1807E+07
  0.1508E+08
  0.1469E+07
  0.5321E+08
  0.2010E+07
  0.1126E+07
  0.1343E+07
  0.3342E+07
  0.1568E+07
  0.1326E+07
  0.7937E+06
  0.8923E+07
  0.3374E+07
  0.5933E+07
  0.1186E+05
  0.3290E+05
  0.5188E+08
  0.1070E+07
  0.4312E+07
  0.4715E+07
  0.1528E+07
  0.4571E+07
  0.2427E+07
  0.6196E+07
  0.5785E+06
  0.1814E+09
  0.1586E+07
  0.1071E+07
  0.6163E+07
  0.1525E+07
  0.6366E+06
  0.1732E+07
  0.7914E+06
  0.2146E+07
  0.1230E+07
  0.7116E+08
  0.1140E+07
  0.3473E+07
  0.2690E+07
  0.3593E+08
  0.3812E+07
  0.2358E+07
  0.4027E+07
  0.8479E+07
  0.5953E+08
  0.1736E+07
  0.2939E+08
  0.1728E+08
  0.6120E+07
  0.7488E+06
  0.5546E+08
  0.3348E+07
  0.2133E+07
  0.6306E+08
  0.2006E+09
  0.1370E+08
  0.4513E+07
  0.1482E+09
  0.3084E+07
  0.2057E+08
  0.2628E+07
  0.7175E+07
  0.7874E+08
  0.3111E+07
  0.2535E+08
  0.1004E+07
  0.1842E+07
  0.2353E+07
  0.1524E+08
  0.3832E+07
  0.7972E+07
  0.2125E+08
  0.2520E+07
  0.1184E+05
  0.3302E+05
  0.7742E+06
  0.2375E+08
  0.6663E+06
  0.1459E+08
  0.6533E+06
  0.6468E+08
  0.4225E+07
  0.7123E+08
  0.2155E+07
  0.2710E+07
  0.3191E+07
  0.1671E+09
  0.3694E+08
  0.5872E+06
  0.3424E+07
  0.1289E+09
  0.9934E+07
  0.2197E+07
  0.3100E+08
  0.7170E+07
  0.1455E+07
  0.7285E+06
  0.2356E+08
  0.4422E+06
  0.6754E+06
  0.3063E+07
  0.3862E+08
  0.4695E+08
  0.1989E+08
  0.1347E+08
  0.2452E+07
  0.4161E+07
  0.1218E+08
  0.3317E+07
  0.1291E+08
  0.1045E+07
  0.3524E+07
  0.3013E+09
  0.3895E+07
  0.2739E+07
  0.1786E+07
  0.4587E+07
  0.2120E+09
  0.1207E+07
  0.3485E+07
  0.8193E+07
  0.9776E+08
  0.2079E+07
  0.3620E+08
  0.1542E+08
  0.5532E+08
  0.6015E+07
  0.3452E+08
  0.5030E+07
  0.3641E+07
  0.1524E+07
  0.4543E+07
  0.1236E+05
  0.3359E+05
  0.4256E+07
  0.2162E+07
  0.3911E+07
  0.5403E+07
  0.4255E+08
  0.9269E+06
  0.2856E+07
  0.1833E+08
  0.1017E+07
  0.3213E+09
  0.1063E+08
  0.1160E+08
  0.2749E+07
  0.2138E+07
  0.2239E+09
  0.6891E+07
  0.5174E+06
  0.1015E+08
  0.2399E+09
  0.2348E+07
  0.4866E+08
  0.1605E+07
  0.5954E+08
  0.5029E+06
  0.4692E+08
  0.6388E+06
  0.9643E+07
  0.3450E+07
  0.2261E+07
  0.7449E+04
  0.1629E+08
  0.3122E+07
  0.1014E+08
  0.1370E+07
  0.5709E+08
  0.1143E+07
  0.2981E+07
  0.1176E+07
  0.1067E+09
  0.6035E+07
  0.4149E+07
  0.3293E+09
  0.2167E+08
  0.1931E+08
  0.1508E+08
  0.1354E+07
  0.5410E+07
  0.2308E+09
  0.7607E+06
  0.2097E+08
  0.2046E+07
  0.2604E+09
  0.1040E+07
  0.2804E+07
  0.5214E+08
  0.2219E+08
  0.2560E+07
  0.5214E+08
  0.2292E+07
  0.6295E+07
  0.2266E+08
  0.6496E+07
  0.2436E+07
  0.2276E+07
  0.3373E+05
  0.2189E+07
  0.2225E+07
  0.3949E+07
  0.1615E+07
  0.4553E+07
  0.1761E+07
  0.7414E+07
  0.2132E+07
  0.3321E+09
  0.2673E+07
  0.1118E+08